LAMMPS (9 Dec 2014)
units micro

atom_style angle
atom_modify sort 0 0
bond_style harmonic
angle_style harmonic

pair_style lj/cut .09

dimension	2
read_data ${filename}
read_data init_cfgs/filament_bl1.txt
  orthogonal box = (-500 -500 -0.05) to (500 500 0.05)
  1 by 1 by 1 MPI processor grid
  reading atoms ...
  200 atoms
  scanning bonds ...
  1 = max bonds/atom
  scanning angles ...
  1 = max angles/atom
  reading bonds ...
  199 bonds
  reading angles ...
  198 angles
  2 = max # of 1-2 neighbors
  2 = max # of 1-3 neighbors
  4 = max # of 1-4 neighbors
  6 = max # of special neighbors
# micro units for energy are pg-um^2/us^2

# K = kT*Lp/(2L)
# kT = .004 pN-um = 4*10e-6 pg-um^2/us^2
# Lp = persistence length = 10 um
# L  = bond length = 1 um
# ==> K = 2e-5 fJ
angle_coeff  1 ${angle_stiffness} 180
angle_coeff  1 .0000200 180

# units for stiffness : pg/(um-us^2)
# Young's modulus = E = 2.5 * 10^9 N/m^2 = 2.5*10^6 pg/(um-us^2) (Huxley, 1994)
# diam = .006um, L = 1um (chosen) ==> a/L = 2.8e-5 um
# k = E*a/L = 70 pg/(us)^2
bond_coeff * ${bond_stiffness} ${bond_length}
bond_coeff * 1e-2 ${bond_length}
bond_coeff * 1e-2 1

pair_coeff * * 0 0

# An actin monomer subunit has mass is 42 kDa ~= 7e-8 pg
# length density is 13 subunits per 35 nm
# ==> 371 subunits per micron ==> 2.6e-5pg/micron
mass * ${my_mass} #pg
mass * .0000258 

timestep ${timestep}
timestep 0.01

velocity all create ${temp} ${vseed} dist gaussian
velocity all create 300 ${vseed} dist gaussian
velocity all create 300 249 dist gaussian
#lammps manual says that nve + langevin = brownian dynamics
#damping parameter:
#   kinematic viscosity = nu = 0.5 um^2/s = 5e-7 um^2/us
#   density of water = rho = 1000 kg / m^3 = 1 pg/um^3
#   dynamic viscosity = mu = nu*rho = 5e-7 pg/(um-us)
#   Force / velocity = F / v = 4 pi mu R = m / damp  (where m is mass and R is radius of sphere)
#   ==> damp = m / (4 Pi mu R) = 520 / (20pi) us = 8.3 us
#       for baoab, invert this ==> 1.2e-5 ps^-1

#fix 1 all baoab 1 ${temp} 8675309
fix 1 all nve
fix 2 all langevin ${temp} ${temp} ${fric} ${lseed}
fix 2 all langevin 300 ${temp} ${fric} ${lseed}
fix 2 all langevin 300 300 ${fric} ${lseed}
fix 2 all langevin 300 300 10000 ${lseed}
fix 2 all langevin 300 300 10000 10249
fix 3 all enforce2d

#fix 2 all shake 0.0001 20 10000 b 1 2

thermo ${thermo_freq}
thermo 10000
thermo_style multi

dump 1 all atom ${dump_freq} ${dump_file}
dump 1 all atom 10000 ${dump_file}
dump 1 all atom 10000 /home/simonfreedman/scratch-midway/cytomod-lammps/out/langevin_long_fric10000_seed249.atom
run ${iters}
run 2000000000
Memory usage per processor = 424.412 Mbytes
---------------- Step        0 ----- CPU =      0.0000 (sec) ----------------
TotEng   =         0.0009 KinEng   =         0.0008 Temp     =       300.0000 
PotEng   =         0.0000 E_bond   =         0.0000 E_angle  =         0.0000 
E_dihed  =         0.0000 E_impro  =         0.0000 E_vdwl   =         0.0000 
E_coul   =         0.0000 E_long   =         0.0000 Press    =         0.0000 
---------------- Step    10000 ----- CPU =     92.4649 (sec) ----------------
TotEng   =         0.0009 KinEng   =         0.0004 Temp     =       163.7018 
PotEng   =         0.0004 E_bond   =         0.0002 E_angle  =         0.0002 
E_dihed  =         0.0000 E_impro  =         0.0000 E_vdwl   =         0.0000 
E_coul   =         0.0000 E_long   =         0.0000 Press    =        -0.0000 
---------------- Step    20000 ----- CPU =    185.0631 (sec) ----------------
TotEng   =         0.0009 KinEng   =         0.0004 Temp     =       157.9942 
PotEng   =         0.0004 E_bond   =         0.0002 E_angle  =         0.0002 
E_dihed  =         0.0000 E_impro  =         0.0000 E_vdwl   =         0.0000 
E_coul   =         0.0000 E_long   =         0.0000 Press    =         0.0000 
---------------- Step    30000 ----- CPU =    277.6324 (sec) ----------------
TotEng   =         0.0009 KinEng   =         0.0004 Temp     =       151.7268 
PotEng   =         0.0005 E_bond   =         0.0002 E_angle  =         0.0002 
E_dihed  =         0.0000 E_impro  =         0.0000 E_vdwl   =         0.0000 
E_coul   =         0.0000 E_long   =         0.0000 Press    =        -0.0000 
---------------- Step    40000 ----- CPU =    370.1296 (sec) ----------------
TotEng   =         0.0009 KinEng   =         0.0004 Temp     =       150.1573 
PotEng   =         0.0005 E_bond   =         0.0002 E_angle  =         0.0002 
E_dihed  =         0.0000 E_impro  =         0.0000 E_vdwl   =         0.0000 
E_coul   =         0.0000 E_long   =         0.0000 Press    =        -0.0000 
---------------- Step    50000 ----- CPU =    462.6177 (sec) ----------------
TotEng   =         0.0009 KinEng   =         0.0004 Temp     =       159.3849 
PotEng   =         0.0004 E_bond   =         0.0002 E_angle  =         0.0002 
E_dihed  =         0.0000 E_impro  =         0.0000 E_vdwl   =         0.0000 
E_coul   =         0.0000 E_long   =         0.0000 Press    =         0.0000 
---------------- Step    60000 ----- CPU =    554.8146 (sec) ----------------
TotEng   =         0.0009 KinEng   =         0.0005 Temp     =       176.5569 
PotEng   =         0.0004 E_bond   =         0.0002 E_angle  =         0.0002 
E_dihed  =         0.0000 E_impro  =         0.0000 E_vdwl   =         0.0000 
E_coul   =         0.0000 E_long   =         0.0000 Press    =        -0.0000 
---------------- Step    70000 ----- CPU =    646.9313 (sec) ----------------
TotEng   =         0.0009 KinEng   =         0.0005 Temp     =       167.8856 
PotEng   =         0.0004 E_bond   =         0.0002 E_angle  =         0.0002 
E_dihed  =         0.0000 E_impro  =         0.0000 E_vdwl   =         0.0000 
E_coul   =         0.0000 E_long   =         0.0000 Press    =        -0.0000 
---------------- Step    80000 ----- CPU =    739.0975 (sec) ----------------
TotEng   =         0.0009 KinEng   =         0.0004 Temp     =       160.5249 
PotEng   =         0.0005 E_bond   =         0.0002 E_angle  =         0.0002 
E_dihed  =         0.0000 E_impro  =         0.0000 E_vdwl   =         0.0000 
E_coul   =         0.0000 E_long   =         0.0000 Press    =        -0.0000 
---------------- Step    90000 ----- CPU =    831.2462 (sec) ----------------
TotEng   =         0.0009 KinEng   =         0.0005 Temp     =       164.3822 
PotEng   =         0.0005 E_bond   =         0.0002 E_angle  =         0.0002 
E_dihed  =         0.0000 E_impro  =         0.0000 E_vdwl   =         0.0000 
E_coul   =         0.0000 E_long   =         0.0000 Press    =        -0.0000 
---------------- Step   100000 ----- CPU =    923.5782 (sec) ----------------
TotEng   =         0.0009 KinEng   =         0.0004 Temp     =       152.7680 
PotEng   =         0.0005 E_bond   =         0.0003 E_angle  =         0.0003 
E_dihed  =         0.0000 E_impro  =         0.0000 E_vdwl   =         0.0000 
E_coul   =         0.0000 E_long   =         0.0000 Press    =         0.0000 
---------------- Step   110000 ----- CPU =   1016.0525 (sec) ----------------
TotEng   =         0.0009 KinEng   =         0.0005 Temp     =       173.3938 
PotEng   =         0.0005 E_bond   =         0.0002 E_angle  =         0.0002 
E_dihed  =         0.0000 E_impro  =         0.0000 E_vdwl   =         0.0000 
E_coul   =         0.0000 E_long   =         0.0000 Press    =        -0.0000 
---------------- Step   120000 ----- CPU =   1110.5946 (sec) ----------------
TotEng   =         0.0010 KinEng   =         0.0005 Temp     =       167.7612 
PotEng   =         0.0005 E_bond   =         0.0003 E_angle  =         0.0002 
E_dihed  =         0.0000 E_impro  =         0.0000 E_vdwl   =         0.0000 
E_coul   =         0.0000 E_long   =         0.0000 Press    =         0.0000 
---------------- Step   130000 ----- CPU =   1203.1800 (sec) ----------------
TotEng   =         0.0010 KinEng   =         0.0005 Temp     =       164.5597 
PotEng   =         0.0005 E_bond   =         0.0003 E_angle  =         0.0002 
E_dihed  =         0.0000 E_impro  =         0.0000 E_vdwl   =         0.0000 
E_coul   =         0.0000 E_long   =         0.0000 Press    =         0.0000 
---------------- Step   140000 ----- CPU =   1295.9482 (sec) ----------------
TotEng   =         0.0010 KinEng   =         0.0005 Temp     =       167.0763 
PotEng   =         0.0005 E_bond   =         0.0003 E_angle  =         0.0002 
E_dihed  =         0.0000 E_impro  =         0.0000 E_vdwl   =         0.0000 
E_coul   =         0.0000 E_long   =         0.0000 Press    =        -0.0000 
---------------- Step   150000 ----- CPU =   1388.4725 (sec) ----------------
TotEng   =         0.0010 KinEng   =         0.0005 Temp     =       178.5240 
PotEng   =         0.0005 E_bond   =         0.0002 E_angle  =         0.0002 
E_dihed  =         0.0000 E_impro  =         0.0000 E_vdwl   =         0.0000 
E_coul   =         0.0000 E_long   =         0.0000 Press    =        -0.0000 
---------------- Step   160000 ----- CPU =   1480.9730 (sec) ----------------
TotEng   =         0.0010 KinEng   =         0.0004 Temp     =       151.7098 
PotEng   =         0.0006 E_bond   =         0.0003 E_angle  =         0.0003 
E_dihed  =         0.0000 E_impro  =         0.0000 E_vdwl   =         0.0000 
E_coul   =         0.0000 E_long   =         0.0000 Press    =        -0.0000 
---------------- Step   170000 ----- CPU =   1573.4434 (sec) ----------------
TotEng   =         0.0010 KinEng   =         0.0005 Temp     =       172.4685 
PotEng   =         0.0005 E_bond   =         0.0003 E_angle  =         0.0003 
E_dihed  =         0.0000 E_impro  =         0.0000 E_vdwl   =         0.0000 
E_coul   =         0.0000 E_long   =         0.0000 Press    =         0.0000 
---------------- Step   180000 ----- CPU =   1665.8860 (sec) ----------------
TotEng   =         0.0010 KinEng   =         0.0005 Temp     =       181.5354 
PotEng   =         0.0005 E_bond   =         0.0002 E_angle  =         0.0003 
E_dihed  =         0.0000 E_impro  =         0.0000 E_vdwl   =         0.0000 
E_coul   =         0.0000 E_long   =         0.0000 Press    =         0.0000 
---------------- Step   190000 ----- CPU =   1758.3683 (sec) ----------------
TotEng   =         0.0010 KinEng   =         0.0005 Temp     =       172.5619 
PotEng   =         0.0005 E_bond   =         0.0003 E_angle  =         0.0002 
E_dihed  =         0.0000 E_impro  =         0.0000 E_vdwl   =         0.0000 
E_coul   =         0.0000 E_long   =         0.0000 Press    =        -0.0000 
---------------- Step   200000 ----- CPU =   1850.8557 (sec) ----------------
TotEng   =         0.0010 KinEng   =         0.0005 Temp     =       175.5308 
PotEng   =         0.0005 E_bond   =         0.0002 E_angle  =         0.0003 
E_dihed  =         0.0000 E_impro  =         0.0000 E_vdwl   =         0.0000 
E_coul   =         0.0000 E_long   =         0.0000 Press    =         0.0000 
---------------- Step   210000 ----- CPU =   1943.2935 (sec) ----------------
TotEng   =         0.0010 KinEng   =         0.0005 Temp     =       172.9513 
PotEng   =         0.0005 E_bond   =         0.0003 E_angle  =         0.0002 
E_dihed  =         0.0000 E_impro  =         0.0000 E_vdwl   =         0.0000 
E_coul   =         0.0000 E_long   =         0.0000 Press    =         0.0000 
---------------- Step   220000 ----- CPU =   2035.8252 (sec) ----------------
TotEng   =         0.0010 KinEng   =         0.0004 Temp     =       159.3925 
PotEng   =         0.0006 E_bond   =         0.0003 E_angle  =         0.0003 
E_dihed  =         0.0000 E_impro  =         0.0000 E_vdwl   =         0.0000 
E_coul   =         0.0000 E_long   =         0.0000 Press    =         0.0000 
---------------- Step   230000 ----- CPU =   2128.3054 (sec) ----------------
TotEng   =         0.0010 KinEng   =         0.0005 Temp     =       194.9450 
PotEng   =         0.0005 E_bond   =         0.0002 E_angle  =         0.0002 
E_dihed  =         0.0000 E_impro  =         0.0000 E_vdwl   =         0.0000 
E_coul   =         0.0000 E_long   =         0.0000 Press    =         0.0000 
---------------- Step   240000 ----- CPU =   2220.7619 (sec) ----------------
TotEng   =         0.0010 KinEng   =         0.0005 Temp     =       192.7455 
PotEng   =         0.0005 E_bond   =         0.0002 E_angle  =         0.0003 
E_dihed  =         0.0000 E_impro  =         0.0000 E_vdwl   =         0.0000 
E_coul   =         0.0000 E_long   =         0.0000 Press    =         0.0000 
---------------- Step   250000 ----- CPU =   2313.2388 (sec) ----------------
TotEng   =         0.0010 KinEng   =         0.0005 Temp     =       180.7379 
PotEng   =         0.0005 E_bond   =         0.0003 E_angle  =         0.0003 
E_dihed  =         0.0000 E_impro  =         0.0000 E_vdwl   =         0.0000 
E_coul   =         0.0000 E_long   =         0.0000 Press    =        -0.0000 
---------------- Step   260000 ----- CPU =   2405.7157 (sec) ----------------
TotEng   =         0.0010 KinEng   =         0.0005 Temp     =       190.6802 
PotEng   =         0.0005 E_bond   =         0.0002 E_angle  =         0.0003 
E_dihed  =         0.0000 E_impro  =         0.0000 E_vdwl   =         0.0000 
E_coul   =         0.0000 E_long   =         0.0000 Press    =        -0.0000 
---------------- Step   270000 ----- CPU =   2498.1641 (sec) ----------------
TotEng   =         0.0010 KinEng   =         0.0005 Temp     =       184.3184 
PotEng   =         0.0005 E_bond   =         0.0003 E_angle  =         0.0003 
E_dihed  =         0.0000 E_impro  =         0.0000 E_vdwl   =         0.0000 
E_coul   =         0.0000 E_long   =         0.0000 Press    =        -0.0000 
---------------- Step   280000 ----- CPU =   2590.6472 (sec) ----------------
TotEng   =         0.0010 KinEng   =         0.0005 Temp     =       190.9900 
PotEng   =         0.0005 E_bond   =         0.0003 E_angle  =         0.0002 
E_dihed  =         0.0000 E_impro  =         0.0000 E_vdwl   =         0.0000 
E_coul   =         0.0000 E_long   =         0.0000 Press    =         0.0000 
---------------- Step   290000 ----- CPU =   2683.1962 (sec) ----------------
TotEng   =         0.0010 KinEng   =         0.0005 Temp     =       187.8170 
PotEng   =         0.0005 E_bond   =         0.0003 E_angle  =         0.0003 
E_dihed  =         0.0000 E_impro  =         0.0000 E_vdwl   =         0.0000 
E_coul   =         0.0000 E_long   =         0.0000 Press    =         0.0000 
---------------- Step   300000 ----- CPU =   2775.6834 (sec) ----------------
TotEng   =         0.0010 KinEng   =         0.0005 Temp     =       192.9397 
PotEng   =         0.0005 E_bond   =         0.0002 E_angle  =         0.0003 
E_dihed  =         0.0000 E_impro  =         0.0000 E_vdwl   =         0.0000 
E_coul   =         0.0000 E_long   =         0.0000 Press    =         0.0000 
---------------- Step   310000 ----- CPU =   2868.1672 (sec) ----------------
TotEng   =         0.0011 KinEng   =         0.0005 Temp     =       198.4561 
PotEng   =         0.0005 E_bond   =         0.0003 E_angle  =         0.0002 
E_dihed  =         0.0000 E_impro  =         0.0000 E_vdwl   =         0.0000 
E_coul   =         0.0000 E_long   =         0.0000 Press    =        -0.0000 
---------------- Step   320000 ----- CPU =   2963.0460 (sec) ----------------
TotEng   =         0.0011 KinEng   =         0.0006 Temp     =       201.3091 
PotEng   =         0.0005 E_bond   =         0.0003 E_angle  =         0.0003 
E_dihed  =         0.0000 E_impro  =         0.0000 E_vdwl   =         0.0000 
E_coul   =         0.0000 E_long   =         0.0000 Press    =        -0.0000 
---------------- Step   330000 ----- CPU =   3055.5586 (sec) ----------------
TotEng   =         0.0011 KinEng   =         0.0006 Temp     =       215.8846 
PotEng   =         0.0005 E_bond   =         0.0002 E_angle  =         0.0003 
E_dihed  =         0.0000 E_impro  =         0.0000 E_vdwl   =         0.0000 
E_coul   =         0.0000 E_long   =         0.0000 Press    =         0.0000 
---------------- Step   340000 ----- CPU =   3148.0771 (sec) ----------------
TotEng   =         0.0011 KinEng   =         0.0006 Temp     =       204.9707 
PotEng   =         0.0005 E_bond   =         0.0003 E_angle  =         0.0003 
E_dihed  =         0.0000 E_impro  =         0.0000 E_vdwl   =         0.0000 
E_coul   =         0.0000 E_long   =         0.0000 Press    =         0.0000 
---------------- Step   350000 ----- CPU =   3240.5829 (sec) ----------------
TotEng   =         0.0011 KinEng   =         0.0005 Temp     =       198.5050 
PotEng   =         0.0006 E_bond   =         0.0003 E_angle  =         0.0003 
E_dihed  =         0.0000 E_impro  =         0.0000 E_vdwl   =         0.0000 
E_coul   =         0.0000 E_long   =         0.0000 Press    =        -0.0000 
---------------- Step   360000 ----- CPU =   3333.0363 (sec) ----------------
TotEng   =         0.0011 KinEng   =         0.0006 Temp     =       207.1521 
PotEng   =         0.0006 E_bond   =         0.0003 E_angle  =         0.0003 
E_dihed  =         0.0000 E_impro  =         0.0000 E_vdwl   =         0.0000 
E_coul   =         0.0000 E_long   =         0.0000 Press    =         0.0000 
---------------- Step   370000 ----- CPU =   3425.4681 (sec) ----------------
TotEng   =         0.0011 KinEng   =         0.0005 Temp     =       190.7121 
PotEng   =         0.0006 E_bond   =         0.0003 E_angle  =         0.0003 
E_dihed  =         0.0000 E_impro  =         0.0000 E_vdwl   =         0.0000 
E_coul   =         0.0000 E_long   =         0.0000 Press    =         0.0000 
---------------- Step   380000 ----- CPU =   3517.8909 (sec) ----------------
TotEng   =         0.0011 KinEng   =         0.0005 Temp     =       189.2505 
PotEng   =         0.0006 E_bond   =         0.0003 E_angle  =         0.0003 
E_dihed  =         0.0000 E_impro  =         0.0000 E_vdwl   =         0.0000 
E_coul   =         0.0000 E_long   =         0.0000 Press    =         0.0000 
---------------- Step   390000 ----- CPU =   3610.4439 (sec) ----------------
TotEng   =         0.0011 KinEng   =         0.0006 Temp     =       213.6270 
PotEng   =         0.0005 E_bond   =         0.0003 E_angle  =         0.0003 
E_dihed  =         0.0000 E_impro  =         0.0000 E_vdwl   =         0.0000 
E_coul   =         0.0000 E_long   =         0.0000 Press    =        -0.0000 
---------------- Step   400000 ----- CPU =   3702.8955 (sec) ----------------
TotEng   =         0.0012 KinEng   =         0.0006 Temp     =       201.8243 
PotEng   =         0.0006 E_bond   =         0.0003 E_angle  =         0.0003 
E_dihed  =         0.0000 E_impro  =         0.0000 E_vdwl   =         0.0000 
E_coul   =         0.0000 E_long   =         0.0000 Press    =         0.0000 
---------------- Step   410000 ----- CPU =   3795.3089 (sec) ----------------
TotEng   =         0.0012 KinEng   =         0.0007 Temp     =       238.9479 
PotEng   =         0.0005 E_bond   =         0.0002 E_angle  =         0.0003 
E_dihed  =         0.0000 E_impro  =         0.0000 E_vdwl   =         0.0000 
E_coul   =         0.0000 E_long   =         0.0000 Press    =         0.0000 
---------------- Step   420000 ----- CPU =   3887.9041 (sec) ----------------
TotEng   =         0.0012 KinEng   =         0.0006 Temp     =       203.2171 
PotEng   =         0.0006 E_bond   =         0.0003 E_angle  =         0.0003 
E_dihed  =         0.0000 E_impro  =         0.0000 E_vdwl   =         0.0000 
E_coul   =         0.0000 E_long   =         0.0000 Press    =        -0.0000 
---------------- Step   430000 ----- CPU =   3980.4730 (sec) ----------------
TotEng   =         0.0012 KinEng   =         0.0006 Temp     =       233.0861 
PotEng   =         0.0006 E_bond   =         0.0003 E_angle  =         0.0003 
E_dihed  =         0.0000 E_impro  =         0.0000 E_vdwl   =         0.0000 
E_coul   =         0.0000 E_long   =         0.0000 Press    =        -0.0000 
---------------- Step   440000 ----- CPU =   4072.9630 (sec) ----------------
TotEng   =         0.0012 KinEng   =         0.0007 Temp     =       239.8959 
PotEng   =         0.0005 E_bond   =         0.0003 E_angle  =         0.0003 
E_dihed  =         0.0000 E_impro  =         0.0000 E_vdwl   =         0.0000 
E_coul   =         0.0000 E_long   =         0.0000 Press    =        -0.0000 
---------------- Step   450000 ----- CPU =   4165.4514 (sec) ----------------
TotEng   =         0.0012 KinEng   =         0.0006 Temp     =       211.8559 
PotEng   =         0.0006 E_bond   =         0.0003 E_angle  =         0.0003 
E_dihed  =         0.0000 E_impro  =         0.0000 E_vdwl   =         0.0000 
E_coul   =         0.0000 E_long   =         0.0000 Press    =        -0.0000 
---------------- Step   460000 ----- CPU =   4257.9434 (sec) ----------------
TotEng   =         0.0012 KinEng   =         0.0006 Temp     =       211.8553 
PotEng   =         0.0006 E_bond   =         0.0003 E_angle  =         0.0003 
E_dihed  =         0.0000 E_impro  =         0.0000 E_vdwl   =         0.0000 
E_coul   =         0.0000 E_long   =         0.0000 Press    =        -0.0000 
---------------- Step   470000 ----- CPU =   4350.3585 (sec) ----------------
TotEng   =         0.0012 KinEng   =         0.0006 Temp     =       218.8209 
PotEng   =         0.0006 E_bond   =         0.0003 E_angle  =         0.0003 
E_dihed  =         0.0000 E_impro  =         0.0000 E_vdwl   =         0.0000 
E_coul   =         0.0000 E_long   =         0.0000 Press    =        -0.0000 
---------------- Step   480000 ----- CPU =   4442.8315 (sec) ----------------
TotEng   =         0.0012 KinEng   =         0.0006 Temp     =       214.3993 
PotEng   =         0.0007 E_bond   =         0.0004 E_angle  =         0.0003 
E_dihed  =         0.0000 E_impro  =         0.0000 E_vdwl   =         0.0000 
E_coul   =         0.0000 E_long   =         0.0000 Press    =        -0.0000 
---------------- Step   490000 ----- CPU =   4535.2983 (sec) ----------------
TotEng   =         0.0012 KinEng   =         0.0006 Temp     =       225.8670 
PotEng   =         0.0006 E_bond   =         0.0003 E_angle  =         0.0003 
E_dihed  =         0.0000 E_impro  =         0.0000 E_vdwl   =         0.0000 
E_coul   =         0.0000 E_long   =         0.0000 Press    =         0.0000 
---------------- Step   500000 ----- CPU =   4627.7127 (sec) ----------------
TotEng   =         0.0013 KinEng   =         0.0006 Temp     =       226.9658 
PotEng   =         0.0006 E_bond   =         0.0003 E_angle  =         0.0003 
E_dihed  =         0.0000 E_impro  =         0.0000 E_vdwl   =         0.0000 
E_coul   =         0.0000 E_long   =         0.0000 Press    =         0.0000 
---------------- Step   510000 ----- CPU =   4722.2124 (sec) ----------------
TotEng   =         0.0012 KinEng   =         0.0007 Temp     =       241.3609 
PotEng   =         0.0006 E_bond   =         0.0003 E_angle  =         0.0003 
E_dihed  =         0.0000 E_impro  =         0.0000 E_vdwl   =         0.0000 
E_coul   =         0.0000 E_long   =         0.0000 Press    =        -0.0000 
---------------- Step   520000 ----- CPU =   4814.9554 (sec) ----------------
TotEng   =         0.0013 KinEng   =         0.0006 Temp     =       215.6522 
PotEng   =         0.0007 E_bond   =         0.0003 E_angle  =         0.0004 
E_dihed  =         0.0000 E_impro  =         0.0000 E_vdwl   =         0.0000 
E_coul   =         0.0000 E_long   =         0.0000 Press    =         0.0000 
---------------- Step   530000 ----- CPU =   4907.3753 (sec) ----------------
TotEng   =         0.0013 KinEng   =         0.0007 Temp     =       247.7419 
PotEng   =         0.0006 E_bond   =         0.0003 E_angle  =         0.0003 
E_dihed  =         0.0000 E_impro  =         0.0000 E_vdwl   =         0.0000 
E_coul   =         0.0000 E_long   =         0.0000 Press    =        -0.0000 
---------------- Step   540000 ----- CPU =   4999.8127 (sec) ----------------
TotEng   =         0.0013 KinEng   =         0.0006 Temp     =       232.4545 
PotEng   =         0.0006 E_bond   =         0.0003 E_angle  =         0.0003 
E_dihed  =         0.0000 E_impro  =         0.0000 E_vdwl   =         0.0000 
E_coul   =         0.0000 E_long   =         0.0000 Press    =        -0.0000 
---------------- Step   550000 ----- CPU =   5092.2789 (sec) ----------------
TotEng   =         0.0013 KinEng   =         0.0006 Temp     =       225.3745 
PotEng   =         0.0007 E_bond   =         0.0004 E_angle  =         0.0003 
E_dihed  =         0.0000 E_impro  =         0.0000 E_vdwl   =         0.0000 
E_coul   =         0.0000 E_long   =         0.0000 Press    =         0.0000 
---------------- Step   560000 ----- CPU =   5184.7042 (sec) ----------------
TotEng   =         0.0013 KinEng   =         0.0007 Temp     =       252.0640 
PotEng   =         0.0006 E_bond   =         0.0003 E_angle  =         0.0003 
E_dihed  =         0.0000 E_impro  =         0.0000 E_vdwl   =         0.0000 
E_coul   =         0.0000 E_long   =         0.0000 Press    =         0.0000 
---------------- Step   570000 ----- CPU =   5277.1688 (sec) ----------------
TotEng   =         0.0013 KinEng   =         0.0006 Temp     =       218.8582 
PotEng   =         0.0007 E_bond   =         0.0003 E_angle  =         0.0004 
E_dihed  =         0.0000 E_impro  =         0.0000 E_vdwl   =         0.0000 
E_coul   =         0.0000 E_long   =         0.0000 Press    =        -0.0000 
---------------- Step   580000 ----- CPU =   5369.6387 (sec) ----------------
TotEng   =         0.0013 KinEng   =         0.0007 Temp     =       242.2561 
PotEng   =         0.0006 E_bond   =         0.0003 E_angle  =         0.0003 
E_dihed  =         0.0000 E_impro  =         0.0000 E_vdwl   =         0.0000 
E_coul   =         0.0000 E_long   =         0.0000 Press    =        -0.0000 
---------------- Step   590000 ----- CPU =   5462.0527 (sec) ----------------
TotEng   =         0.0013 KinEng   =         0.0006 Temp     =       224.5137 
PotEng   =         0.0007 E_bond   =         0.0004 E_angle  =         0.0003 
E_dihed  =         0.0000 E_impro  =         0.0000 E_vdwl   =         0.0000 
E_coul   =         0.0000 E_long   =         0.0000 Press    =         0.0000 
---------------- Step   600000 ----- CPU =   5554.4744 (sec) ----------------
TotEng   =         0.0013 KinEng   =         0.0006 Temp     =       226.4614 
PotEng   =         0.0007 E_bond   =         0.0004 E_angle  =         0.0003 
E_dihed  =         0.0000 E_impro  =         0.0000 E_vdwl   =         0.0000 
E_coul   =         0.0000 E_long   =         0.0000 Press    =        -0.0000 
---------------- Step   610000 ----- CPU =   5646.9579 (sec) ----------------
TotEng   =         0.0013 KinEng   =         0.0007 Temp     =       239.5048 
PotEng   =         0.0007 E_bond   =         0.0003 E_angle  =         0.0004 
E_dihed  =         0.0000 E_impro  =         0.0000 E_vdwl   =         0.0000 
E_coul   =         0.0000 E_long   =         0.0000 Press    =        -0.0000 
---------------- Step   620000 ----- CPU =   5739.4110 (sec) ----------------
TotEng   =         0.0013 KinEng   =         0.0006 Temp     =       229.3530 
PotEng   =         0.0007 E_bond   =         0.0003 E_angle  =         0.0003 
E_dihed  =         0.0000 E_impro  =         0.0000 E_vdwl   =         0.0000 
E_coul   =         0.0000 E_long   =         0.0000 Press    =         0.0000 
---------------- Step   630000 ----- CPU =   5831.8140 (sec) ----------------
TotEng   =         0.0013 KinEng   =         0.0007 Temp     =       246.0391 
PotEng   =         0.0006 E_bond   =         0.0003 E_angle  =         0.0003 
E_dihed  =         0.0000 E_impro  =         0.0000 E_vdwl   =         0.0000 
E_coul   =         0.0000 E_long   =         0.0000 Press    =         0.0000 
---------------- Step   640000 ----- CPU =   5924.2504 (sec) ----------------
TotEng   =         0.0013 KinEng   =         0.0007 Temp     =       240.1250 
PotEng   =         0.0007 E_bond   =         0.0004 E_angle  =         0.0003 
E_dihed  =         0.0000 E_impro  =         0.0000 E_vdwl   =         0.0000 
E_coul   =         0.0000 E_long   =         0.0000 Press    =         0.0000 
---------------- Step   650000 ----- CPU =   6016.6795 (sec) ----------------
TotEng   =         0.0013 KinEng   =         0.0007 Temp     =       244.1293 
PotEng   =         0.0006 E_bond   =         0.0003 E_angle  =         0.0003 
E_dihed  =         0.0000 E_impro  =         0.0000 E_vdwl   =         0.0000 
E_coul   =         0.0000 E_long   =         0.0000 Press    =         0.0000 
---------------- Step   660000 ----- CPU =   6109.0661 (sec) ----------------
TotEng   =         0.0013 KinEng   =         0.0006 Temp     =       220.8420 
PotEng   =         0.0007 E_bond   =         0.0004 E_angle  =         0.0003 
E_dihed  =         0.0000 E_impro  =         0.0000 E_vdwl   =         0.0000 
E_coul   =         0.0000 E_long   =         0.0000 Press    =         0.0000 
---------------- Step   670000 ----- CPU =   6201.4895 (sec) ----------------
TotEng   =         0.0013 KinEng   =         0.0006 Temp     =       228.2582 
PotEng   =         0.0007 E_bond   =         0.0003 E_angle  =         0.0004 
E_dihed  =         0.0000 E_impro  =         0.0000 E_vdwl   =         0.0000 
E_coul   =         0.0000 E_long   =         0.0000 Press    =         0.0000 
---------------- Step   680000 ----- CPU =   6293.9793 (sec) ----------------
TotEng   =         0.0013 KinEng   =         0.0007 Temp     =       242.9503 
PotEng   =         0.0007 E_bond   =         0.0003 E_angle  =         0.0004 
E_dihed  =         0.0000 E_impro  =         0.0000 E_vdwl   =         0.0000 
E_coul   =         0.0000 E_long   =         0.0000 Press    =        -0.0000 
---------------- Step   690000 ----- CPU =   6386.3893 (sec) ----------------
TotEng   =         0.0013 KinEng   =         0.0007 Temp     =       246.3593 
PotEng   =         0.0007 E_bond   =         0.0004 E_angle  =         0.0003 
E_dihed  =         0.0000 E_impro  =         0.0000 E_vdwl   =         0.0000 
E_coul   =         0.0000 E_long   =         0.0000 Press    =         0.0000 
---------------- Step   700000 ----- CPU =   6478.8265 (sec) ----------------
TotEng   =         0.0013 KinEng   =         0.0007 Temp     =       252.9594 
PotEng   =         0.0007 E_bond   =         0.0003 E_angle  =         0.0003 
E_dihed  =         0.0000 E_impro  =         0.0000 E_vdwl   =         0.0000 
E_coul   =         0.0000 E_long   =         0.0000 Press    =         0.0000 
---------------- Step   710000 ----- CPU =   6573.5925 (sec) ----------------
TotEng   =         0.0013 KinEng   =         0.0007 Temp     =       242.2413 
PotEng   =         0.0007 E_bond   =         0.0003 E_angle  =         0.0003 
E_dihed  =         0.0000 E_impro  =         0.0000 E_vdwl   =         0.0000 
E_coul   =         0.0000 E_long   =         0.0000 Press    =         0.0000 
---------------- Step   720000 ----- CPU =   6666.0682 (sec) ----------------
TotEng   =         0.0013 KinEng   =         0.0007 Temp     =       265.9143 
PotEng   =         0.0006 E_bond   =         0.0003 E_angle  =         0.0003 
E_dihed  =         0.0000 E_impro  =         0.0000 E_vdwl   =         0.0000 
E_coul   =         0.0000 E_long   =         0.0000 Press    =        -0.0000 
---------------- Step   730000 ----- CPU =   6758.5365 (sec) ----------------
TotEng   =         0.0013 KinEng   =         0.0006 Temp     =       233.1966 
PotEng   =         0.0007 E_bond   =         0.0004 E_angle  =         0.0003 
E_dihed  =         0.0000 E_impro  =         0.0000 E_vdwl   =         0.0000 
E_coul   =         0.0000 E_long   =         0.0000 Press    =        -0.0000 
---------------- Step   740000 ----- CPU =   6851.0030 (sec) ----------------
TotEng   =         0.0013 KinEng   =         0.0006 Temp     =       227.7142 
PotEng   =         0.0007 E_bond   =         0.0004 E_angle  =         0.0003 
E_dihed  =         0.0000 E_impro  =         0.0000 E_vdwl   =         0.0000 
E_coul   =         0.0000 E_long   =         0.0000 Press    =         0.0000 
---------------- Step   750000 ----- CPU =   6943.4226 (sec) ----------------
TotEng   =         0.0013 KinEng   =         0.0007 Temp     =       241.9476 
PotEng   =         0.0007 E_bond   =         0.0003 E_angle  =         0.0003 
E_dihed  =         0.0000 E_impro  =         0.0000 E_vdwl   =         0.0000 
E_coul   =         0.0000 E_long   =         0.0000 Press    =         0.0000 
---------------- Step   760000 ----- CPU =   7035.8479 (sec) ----------------
TotEng   =         0.0013 KinEng   =         0.0007 Temp     =       245.7914 
PotEng   =         0.0007 E_bond   =         0.0003 E_angle  =         0.0004 
E_dihed  =         0.0000 E_impro  =         0.0000 E_vdwl   =         0.0000 
E_coul   =         0.0000 E_long   =         0.0000 Press    =         0.0000 
---------------- Step   770000 ----- CPU =   7128.2674 (sec) ----------------
TotEng   =         0.0013 KinEng   =         0.0007 Temp     =       241.4239 
PotEng   =         0.0007 E_bond   =         0.0003 E_angle  =         0.0004 
E_dihed  =         0.0000 E_impro  =         0.0000 E_vdwl   =         0.0000 
E_coul   =         0.0000 E_long   =         0.0000 Press    =         0.0000 
---------------- Step   780000 ----- CPU =   7220.7887 (sec) ----------------
TotEng   =         0.0013 KinEng   =         0.0007 Temp     =       247.2990 
PotEng   =         0.0007 E_bond   =         0.0003 E_angle  =         0.0004 
E_dihed  =         0.0000 E_impro  =         0.0000 E_vdwl   =         0.0000 
E_coul   =         0.0000 E_long   =         0.0000 Press    =         0.0000 
---------------- Step   790000 ----- CPU =   7313.2448 (sec) ----------------
TotEng   =         0.0014 KinEng   =         0.0007 Temp     =       241.5296 
PotEng   =         0.0007 E_bond   =         0.0004 E_angle  =         0.0003 
E_dihed  =         0.0000 E_impro  =         0.0000 E_vdwl   =         0.0000 
E_coul   =         0.0000 E_long   =         0.0000 Press    =        -0.0000 
---------------- Step   800000 ----- CPU =   7405.7481 (sec) ----------------
TotEng   =         0.0013 KinEng   =         0.0006 Temp     =       231.9456 
PotEng   =         0.0007 E_bond   =         0.0003 E_angle  =         0.0004 
E_dihed  =         0.0000 E_impro  =         0.0000 E_vdwl   =         0.0000 
E_coul   =         0.0000 E_long   =         0.0000 Press    =         0.0000 
---------------- Step   810000 ----- CPU =   7498.3577 (sec) ----------------
TotEng   =         0.0014 KinEng   =         0.0007 Temp     =       252.4911 
PotEng   =         0.0007 E_bond   =         0.0003 E_angle  =         0.0003 
E_dihed  =         0.0000 E_impro  =         0.0000 E_vdwl   =         0.0000 
E_coul   =         0.0000 E_long   =         0.0000 Press    =         0.0000 
---------------- Step   820000 ----- CPU =   7590.9820 (sec) ----------------
TotEng   =         0.0014 KinEng   =         0.0007 Temp     =       252.2840 
PotEng   =         0.0007 E_bond   =         0.0003 E_angle  =         0.0004 
E_dihed  =         0.0000 E_impro  =         0.0000 E_vdwl   =         0.0000 
E_coul   =         0.0000 E_long   =         0.0000 Press    =        -0.0000 
---------------- Step   830000 ----- CPU =   7683.5054 (sec) ----------------
TotEng   =         0.0014 KinEng   =         0.0007 Temp     =       245.0017 
PotEng   =         0.0007 E_bond   =         0.0004 E_angle  =         0.0003 
E_dihed  =         0.0000 E_impro  =         0.0000 E_vdwl   =         0.0000 
E_coul   =         0.0000 E_long   =         0.0000 Press    =         0.0000 
---------------- Step   840000 ----- CPU =   7775.9770 (sec) ----------------
TotEng   =         0.0014 KinEng   =         0.0007 Temp     =       248.4081 
PotEng   =         0.0007 E_bond   =         0.0004 E_angle  =         0.0003 
E_dihed  =         0.0000 E_impro  =         0.0000 E_vdwl   =         0.0000 
E_coul   =         0.0000 E_long   =         0.0000 Press    =        -0.0000 
---------------- Step   850000 ----- CPU =   7869.4620 (sec) ----------------
TotEng   =         0.0014 KinEng   =         0.0006 Temp     =       225.7679 
PotEng   =         0.0008 E_bond   =         0.0004 E_angle  =         0.0004 
E_dihed  =         0.0000 E_impro  =         0.0000 E_vdwl   =         0.0000 
E_coul   =         0.0000 E_long   =         0.0000 Press    =         0.0000 
---------------- Step   860000 ----- CPU =   7962.0239 (sec) ----------------
TotEng   =      9568.4424 KinEng   =      4787.9836 Temp     = 1742672793.9970 
PotEng   =      4780.4588 E_bond   =      4780.4417 E_angle  =         0.0172 
E_dihed  =         0.0000 E_impro  =         0.0000 E_vdwl   =         0.0000 
E_coul   =         0.0000 E_long   =         0.0000 Press    =        -0.0001 
---------------- Step   870000 ----- CPU =   8054.2745 (sec) ----------------
TotEng   =      9487.5268 KinEng   =      4615.7921 Temp     = 1680000616.6176 
PotEng   =      4871.7347 E_bond   =      4871.7181 E_angle  =         0.0166 
E_dihed  =         0.0000 E_impro  =         0.0000 E_vdwl   =         0.0000 
E_coul   =         0.0000 E_long   =         0.0000 Press    =        -0.0003 
---------------- Step   880000 ----- CPU =   8146.4229 (sec) ----------------
TotEng   =      9531.4001 KinEng   =      4429.1344 Temp     = 1612063190.7245 
PotEng   =      5102.2657 E_bond   =      5102.2479 E_angle  =         0.0178 
E_dihed  =         0.0000 E_impro  =         0.0000 E_vdwl   =         0.0000 
E_coul   =         0.0000 E_long   =         0.0000 Press    =        -0.0008 
---------------- Step   890000 ----- CPU =   8238.5693 (sec) ----------------
TotEng   =      9345.8031 KinEng   =      4836.2645 Temp     = 1760245496.4307 
PotEng   =      4509.5386 E_bond   =      4509.5214 E_angle  =         0.0172 
E_dihed  =         0.0000 E_impro  =         0.0000 E_vdwl   =         0.0000 
E_coul   =         0.0000 E_long   =         0.0000 Press    =         0.0002 
---------------- Step   900000 ----- CPU =   8332.7839 (sec) ----------------
TotEng   =      9321.2770 KinEng   =      4558.7351 Temp     = 1659233689.6405 
PotEng   =      4762.5419 E_bond   =      4762.5253 E_angle  =         0.0165 
E_dihed  =         0.0000 E_impro  =         0.0000 E_vdwl   =         0.0000 
E_coul   =         0.0000 E_long   =         0.0000 Press    =        -0.0003 
---------------- Step   910000 ----- CPU =   8425.2518 (sec) ----------------
TotEng   =      9240.6120 KinEng   =      4552.0486 Temp     = 1656800003.8058 
PotEng   =      4688.5634 E_bond   =      4688.5463 E_angle  =         0.0171 
E_dihed  =         0.0000 E_impro  =         0.0000 E_vdwl   =         0.0000 
E_coul   =         0.0000 E_long   =         0.0000 Press    =        -0.0002 
---------------- Step   920000 ----- CPU =   8517.7236 (sec) ----------------
TotEng   =      9163.7566 KinEng   =      4981.1714 Temp     = 1812986975.8072 
PotEng   =      4182.5852 E_bond   =      4182.5681 E_angle  =         0.0171 
E_dihed  =         0.0000 E_impro  =         0.0000 E_vdwl   =         0.0000 
E_coul   =         0.0000 E_long   =         0.0000 Press    =         0.0007 
---------------- Step   930000 ----- CPU =   8610.2333 (sec) ----------------
TotEng   =      9183.1575 KinEng   =      4905.5392 Temp     = 1785459277.4912 
PotEng   =      4277.6183 E_bond   =      4277.6019 E_angle  =         0.0165 
E_dihed  =         0.0000 E_impro  =         0.0000 E_vdwl   =         0.0000 
E_coul   =         0.0000 E_long   =         0.0000 Press    =         0.0005 
---------------- Step   940000 ----- CPU =   8702.7788 (sec) ----------------
TotEng   =      9134.9576 KinEng   =      4728.8961 Temp     = 1721166861.2244 
PotEng   =      4406.0615 E_bond   =      4406.0442 E_angle  =         0.0173 
E_dihed  =         0.0000 E_impro  =         0.0000 E_vdwl   =         0.0000 
E_coul   =         0.0000 E_long   =         0.0000 Press    =         0.0002 
---------------- Step   950000 ----- CPU =   8795.2676 (sec) ----------------
TotEng   =      9077.8239 KinEng   =      4755.0810 Temp     = 1730697309.3006 
PotEng   =      4322.7429 E_bond   =      4322.7243 E_angle  =         0.0185 
E_dihed  =         0.0000 E_impro  =         0.0000 E_vdwl   =         0.0000 
E_coul   =         0.0000 E_long   =         0.0000 Press    =         0.0003 
---------------- Step   960000 ----- CPU =   8887.7438 (sec) ----------------
TotEng   =      9012.8734 KinEng   =      4407.5999 Temp     = 1604225313.5099 
PotEng   =      4605.2735 E_bond   =      4605.2558 E_angle  =         0.0177 
E_dihed  =         0.0000 E_impro  =         0.0000 E_vdwl   =         0.0000 
E_coul   =         0.0000 E_long   =         0.0000 Press    =        -0.0003 
---------------- Step   970000 ----- CPU =   8980.2588 (sec) ----------------
TotEng   =      8929.8656 KinEng   =      4622.0434 Temp     = 1682275880.9528 
PotEng   =      4307.8222 E_bond   =      4307.8061 E_angle  =         0.0161 
E_dihed  =         0.0000 E_impro  =         0.0000 E_vdwl   =         0.0000 
E_coul   =         0.0000 E_long   =         0.0000 Press    =         0.0002 
---------------- Step   980000 ----- CPU =   9072.7615 (sec) ----------------
TotEng   =      8861.8768 KinEng   =      4254.2730 Temp     = 1548419220.4466 
PotEng   =      4607.6038 E_bond   =      4607.5871 E_angle  =         0.0167 
E_dihed  =         0.0000 E_impro  =         0.0000 E_vdwl   =         0.0000 
E_coul   =         0.0000 E_long   =         0.0000 Press    =        -0.0004 
---------------- Step   990000 ----- CPU =   9165.2181 (sec) ----------------
TotEng   =      8775.1815 KinEng   =      4311.1876 Temp     = 1569134331.3568 
PotEng   =      4463.9938 E_bond   =      4463.9768 E_angle  =         0.0170 
E_dihed  =         0.0000 E_impro  =         0.0000 E_vdwl   =         0.0000 
E_coul   =         0.0000 E_long   =         0.0000 Press    =        -0.0002 
---------------- Step  1000000 ----- CPU =   9257.7461 (sec) ----------------
TotEng   =      8704.2585 KinEng   =      4330.5712 Temp     = 1576189336.4717 
PotEng   =      4373.6873 E_bond   =      4373.6706 E_angle  =         0.0168 
E_dihed  =         0.0000 E_impro  =         0.0000 E_vdwl   =         0.0000 
E_coul   =         0.0000 E_long   =         0.0000 Press    =        -0.0001 
---------------- Step  1010000 ----- CPU =   9350.2553 (sec) ----------------
TotEng   =      8784.1033 KinEng   =      4374.8116 Temp     = 1592291432.2602 
PotEng   =      4409.2917 E_bond   =      4409.2743 E_angle  =         0.0174 
E_dihed  =         0.0000 E_impro  =         0.0000 E_vdwl   =         0.0000 
E_coul   =         0.0000 E_long   =         0.0000 Press    =        -0.0001 
---------------- Step  1020000 ----- CPU =   9442.7159 (sec) ----------------
TotEng   =      8686.6516 KinEng   =      4146.9291 Temp     = 1509349475.7807 
PotEng   =      4539.7225 E_bond   =      4539.7050 E_angle  =         0.0175 
E_dihed  =         0.0000 E_impro  =         0.0000 E_vdwl   =         0.0000 
E_coul   =         0.0000 E_long   =         0.0000 Press    =        -0.0005 
---------------- Step  1030000 ----- CPU =   9535.2201 (sec) ----------------
TotEng   =      8644.1631 KinEng   =      4043.2329 Temp     = 1471607368.9254 
PotEng   =      4600.9303 E_bond   =      4600.9132 E_angle  =         0.0171 
E_dihed  =         0.0000 E_impro  =         0.0000 E_vdwl   =         0.0000 
E_coul   =         0.0000 E_long   =         0.0000 Press    =        -0.0006 
---------------- Step  1040000 ----- CPU =   9627.7262 (sec) ----------------
TotEng   =      8700.1385 KinEng   =      3904.0737 Temp     = 1420957898.3492 
PotEng   =      4796.0647 E_bond   =      4796.0485 E_angle  =         0.0162 
E_dihed  =         0.0000 E_impro  =         0.0000 E_vdwl   =         0.0000 
E_coul   =         0.0000 E_long   =         0.0000 Press    =        -0.0010 
---------------- Step  1050000 ----- CPU =   9720.2096 (sec) ----------------
TotEng   =      8756.3521 KinEng   =      4439.5313 Temp     = 1615847333.4962 
PotEng   =      4316.8208 E_bond   =      4316.8038 E_angle  =         0.0170 
E_dihed  =         0.0000 E_impro  =         0.0000 E_vdwl   =         0.0000 
E_coul   =         0.0000 E_long   =         0.0000 Press    =         0.0000 
---------------- Step  1060000 ----- CPU =   9812.6818 (sec) ----------------
TotEng   =      8767.2078 KinEng   =      4198.1011 Temp     = 1527974450.9358 
PotEng   =      4569.1067 E_bond   =      4569.0908 E_angle  =         0.0159 
E_dihed  =         0.0000 E_impro  =         0.0000 E_vdwl   =         0.0000 
E_coul   =         0.0000 E_long   =         0.0000 Press    =        -0.0005 
---------------- Step  1070000 ----- CPU =   9905.2031 (sec) ----------------
TotEng   =      8688.0948 KinEng   =      4915.6319 Temp     = 1789132705.8451 
PotEng   =      3772.4629 E_bond   =      3772.4447 E_angle  =         0.0182 
E_dihed  =         0.0000 E_impro  =         0.0000 E_vdwl   =         0.0000 
E_coul   =         0.0000 E_long   =         0.0000 Press    =         0.0011 
---------------- Step  1080000 ----- CPU =   9997.6623 (sec) ----------------
TotEng   =      8589.0126 KinEng   =      4415.2564 Temp     = 1607012034.3268 
PotEng   =      4173.7562 E_bond   =      4173.7389 E_angle  =         0.0173 
E_dihed  =         0.0000 E_impro  =         0.0000 E_vdwl   =         0.0000 
E_coul   =         0.0000 E_long   =         0.0000 Press    =         0.0002 
---------------- Step  1090000 ----- CPU =  10090.0985 (sec) ----------------
TotEng   =      8467.6453 KinEng   =      4298.4352 Temp     = 1564492841.2213 
PotEng   =      4169.2101 E_bond   =      4169.1937 E_angle  =         0.0165 
E_dihed  =         0.0000 E_impro  =         0.0000 E_vdwl   =         0.0000 
E_coul   =         0.0000 E_long   =         0.0000 Press    =         0.0001 
---------------- Step  1100000 ----- CPU =  10184.9248 (sec) ----------------
TotEng   =      8429.0159 KinEng   =      4374.9825 Temp     = 1592353632.3510 
PotEng   =      4054.0334 E_bond   =      4054.0164 E_angle  =         0.0170 
E_dihed  =         0.0000 E_impro  =         0.0000 E_vdwl   =         0.0000 
E_coul   =         0.0000 E_long   =         0.0000 Press    =         0.0002 
---------------- Step  1110000 ----- CPU =  10277.4010 (sec) ----------------
TotEng   =      8420.5150 KinEng   =      4554.0892 Temp     = 1657542731.7525 
PotEng   =      3866.4258 E_bond   =      3866.4093 E_angle  =         0.0165 
E_dihed  =         0.0000 E_impro  =         0.0000 E_vdwl   =         0.0000 
E_coul   =         0.0000 E_long   =         0.0000 Press    =         0.0006 
---------------- Step  1120000 ----- CPU =  10369.8843 (sec) ----------------
TotEng   =      8352.8151 KinEng   =      4022.6552 Temp     = 1464117765.0900 
PotEng   =      4330.1599 E_bond   =      4330.1442 E_angle  =         0.0157 
E_dihed  =         0.0000 E_impro  =         0.0000 E_vdwl   =         0.0000 
E_coul   =         0.0000 E_long   =         0.0000 Press    =        -0.0004 
---------------- Step  1130000 ----- CPU =  10462.3909 (sec) ----------------
TotEng   =      8381.3254 KinEng   =      4127.0018 Temp     = 1502096571.3199 
PotEng   =      4254.3236 E_bond   =      4254.3073 E_angle  =         0.0163 
E_dihed  =         0.0000 E_impro  =         0.0000 E_vdwl   =         0.0000 
E_coul   =         0.0000 E_long   =         0.0000 Press    =        -0.0002 
---------------- Step  1140000 ----- CPU =  10554.8346 (sec) ----------------
TotEng   =      8424.5994 KinEng   =      3818.4846 Temp     = 1389806182.8436 
PotEng   =      4606.1148 E_bond   =      4606.0990 E_angle  =         0.0158 
E_dihed  =         0.0000 E_impro  =         0.0000 E_vdwl   =         0.0000 
E_coul   =         0.0000 E_long   =         0.0000 Press    =        -0.0009 
---------------- Step  1150000 ----- CPU =  10647.3077 (sec) ----------------
TotEng   =      8385.9807 KinEng   =      4145.0236 Temp     = 1508655936.6308 
PotEng   =      4240.9572 E_bond   =      4240.9409 E_angle  =         0.0163 
E_dihed  =         0.0000 E_impro  =         0.0000 E_vdwl   =         0.0000 
E_coul   =         0.0000 E_long   =         0.0000 Press    =        -0.0002 
---------------- Step  1160000 ----- CPU =  10739.7925 (sec) ----------------
TotEng   =      8336.1500 KinEng   =      3765.5777 Temp     = 1370549796.9918 
PotEng   =      4570.5722 E_bond   =      4570.5555 E_angle  =         0.0167 
E_dihed  =         0.0000 E_impro  =         0.0000 E_vdwl   =         0.0000 
E_coul   =         0.0000 E_long   =         0.0000 Press    =        -0.0009 
---------------- Step  1170000 ----- CPU =  10832.2632 (sec) ----------------
TotEng   =      8256.0601 KinEng   =      4202.1136 Temp     = 1529434893.2359 
PotEng   =      4053.9464 E_bond   =      4053.9302 E_angle  =         0.0163 
E_dihed  =         0.0000 E_impro  =         0.0000 E_vdwl   =         0.0000 
E_coul   =         0.0000 E_long   =         0.0000 Press    =         0.0001 
---------------- Step  1180000 ----- CPU =  10924.7274 (sec) ----------------
TotEng   =      8248.1519 KinEng   =      4408.6531 Temp     = 1604608646.7512 
PotEng   =      3839.4988 E_bond   =      3839.4827 E_angle  =         0.0161 
E_dihed  =         0.0000 E_impro  =         0.0000 E_vdwl   =         0.0000 
E_coul   =         0.0000 E_long   =         0.0000 Press    =         0.0005 
---------------- Step  1190000 ----- CPU =  11017.1776 (sec) ----------------
TotEng   =      8156.0498 KinEng   =      4110.1108 Temp     = 1495948809.4991 
PotEng   =      4045.9390 E_bond   =      4045.9230 E_angle  =         0.0160 
E_dihed  =         0.0000 E_impro  =         0.0000 E_vdwl   =         0.0000 
E_coul   =         0.0000 E_long   =         0.0000 Press    =        -0.0000 
---------------- Step  1200000 ----- CPU =  11109.7305 (sec) ----------------
TotEng   =      8063.8792 KinEng   =      4079.7857 Temp     = 1484911440.4160 
PotEng   =      3984.0935 E_bond   =      3984.0771 E_angle  =         0.0164 
E_dihed  =         0.0000 E_impro  =         0.0000 E_vdwl   =         0.0000 
E_coul   =         0.0000 E_long   =         0.0000 Press    =         0.0000 
---------------- Step  1210000 ----- CPU =  11202.2128 (sec) ----------------
TotEng   =      7996.5599 KinEng   =      3977.1598 Temp     = 1447558891.5441 
PotEng   =      4019.4001 E_bond   =      4019.3846 E_angle  =         0.0155 
E_dihed  =         0.0000 E_impro  =         0.0000 E_vdwl   =         0.0000 
E_coul   =         0.0000 E_long   =         0.0000 Press    =        -0.0001 
---------------- Step  1220000 ----- CPU =  11294.7163 (sec) ----------------
TotEng   =      7971.7668 KinEng   =      3805.9599 Temp     = 1385247592.1720 
PotEng   =      4165.8069 E_bond   =      4165.7910 E_angle  =         0.0159 
E_dihed  =         0.0000 E_impro  =         0.0000 E_vdwl   =         0.0000 
E_coul   =         0.0000 E_long   =         0.0000 Press    =        -0.0004 
---------------- Step  1230000 ----- CPU =  11387.2357 (sec) ----------------
TotEng   =      7942.2670 KinEng   =      3739.6470 Temp     = 1361111842.4735 
PotEng   =      4202.6200 E_bond   =      4202.6041 E_angle  =         0.0159 
E_dihed  =         0.0000 E_impro  =         0.0000 E_vdwl   =         0.0000 
E_coul   =         0.0000 E_long   =         0.0000 Press    =        -0.0005 
---------------- Step  1240000 ----- CPU =  11479.7602 (sec) ----------------
TotEng   =      7894.7960 KinEng   =      3996.7251 Temp     = 1454680051.7472 
PotEng   =      3898.0708 E_bond   =      3898.0549 E_angle  =         0.0159 
E_dihed  =         0.0000 E_impro  =         0.0000 E_vdwl   =         0.0000 
E_coul   =         0.0000 E_long   =         0.0000 Press    =         0.0000 
---------------- Step  1250000 ----- CPU =  11572.2285 (sec) ----------------
TotEng   =      7834.1491 KinEng   =      3549.4218 Temp     = 1291875961.6251 
PotEng   =      4284.7273 E_bond   =      4284.7106 E_angle  =         0.0167 
E_dihed  =         0.0000 E_impro  =         0.0000 E_vdwl   =         0.0000 
E_coul   =         0.0000 E_long   =         0.0000 Press    =        -0.0008 
---------------- Step  1260000 ----- CPU =  11664.7407 (sec) ----------------
TotEng   =      7845.8338 KinEng   =      3826.5104 Temp     = 1392727326.9959 
PotEng   =      4019.3234 E_bond   =      4019.3060 E_angle  =         0.0174 
E_dihed  =         0.0000 E_impro  =         0.0000 E_vdwl   =         0.0000 
E_coul   =         0.0000 E_long   =         0.0000 Press    =        -0.0003 
---------------- Step  1270000 ----- CPU =  11757.2140 (sec) ----------------
TotEng   =      7797.6195 KinEng   =      3604.7122 Temp     = 1311999891.6679 
PotEng   =      4192.9073 E_bond   =      4192.8911 E_angle  =         0.0162 
E_dihed  =         0.0000 E_impro  =         0.0000 E_vdwl   =         0.0000 
E_coul   =         0.0000 E_long   =         0.0000 Press    =        -0.0007 
---------------- Step  1280000 ----- CPU =  11849.6810 (sec) ----------------
TotEng   =      7806.3438 KinEng   =      3573.3558 Temp     = 1300587165.4989 
PotEng   =      4232.9880 E_bond   =      4232.9717 E_angle  =         0.0162 
E_dihed  =         0.0000 E_impro  =         0.0000 E_vdwl   =         0.0000 
E_coul   =         0.0000 E_long   =         0.0000 Press    =        -0.0007 
---------------- Step  1290000 ----- CPU =  11944.2951 (sec) ----------------
TotEng   =      7688.8574 KinEng   =      3971.6570 Temp     = 1445556037.6764 
PotEng   =      3717.2004 E_bond   =      3717.1840 E_angle  =         0.0164 
E_dihed  =         0.0000 E_impro  =         0.0000 E_vdwl   =         0.0000 
E_coul   =         0.0000 E_long   =         0.0000 Press    =         0.0002 
---------------- Step  1300000 ----- CPU =  12037.0911 (sec) ----------------
TotEng   =      7630.7477 KinEng   =      3995.5398 Temp     = 1454248611.4766 
PotEng   =      3635.2080 E_bond   =      3635.1917 E_angle  =         0.0163 
E_dihed  =         0.0000 E_impro  =         0.0000 E_vdwl   =         0.0000 
E_coul   =         0.0000 E_long   =         0.0000 Press    =         0.0003 
---------------- Step  1310000 ----- CPU =  12129.5736 (sec) ----------------
TotEng   =      7610.7818 KinEng   =      3391.2428 Temp     = 1234303840.2008 
PotEng   =      4219.5391 E_bond   =      4219.5223 E_angle  =         0.0168 
E_dihed  =         0.0000 E_impro  =         0.0000 E_vdwl   =         0.0000 
E_coul   =         0.0000 E_long   =         0.0000 Press    =        -0.0009 
---------------- Step  1320000 ----- CPU =  12222.0614 (sec) ----------------
TotEng   =      7726.6253 KinEng   =      3986.3672 Temp     = 1450910075.8179 
PotEng   =      3740.2582 E_bond   =      3740.2413 E_angle  =         0.0169 
E_dihed  =         0.0000 E_impro  =         0.0000 E_vdwl   =         0.0000 
E_coul   =         0.0000 E_long   =         0.0000 Press    =         0.0002 
---------------- Step  1330000 ----- CPU =  12314.5845 (sec) ----------------
TotEng   =      7648.3289 KinEng   =      3712.4768 Temp     = 1351222757.1999 
PotEng   =      3935.8521 E_bond   =      3935.8360 E_angle  =         0.0161 
E_dihed  =         0.0000 E_impro  =         0.0000 E_vdwl   =         0.0000 
E_coul   =         0.0000 E_long   =         0.0000 Press    =        -0.0003 
---------------- Step  1340000 ----- CPU =  12407.0514 (sec) ----------------
TotEng   =      7598.1957 KinEng   =      3792.4266 Temp     = 1380321931.7581 
PotEng   =      3805.7691 E_bond   =      3805.7520 E_angle  =         0.0171 
E_dihed  =         0.0000 E_impro  =         0.0000 E_vdwl   =         0.0000 
E_coul   =         0.0000 E_long   =         0.0000 Press    =        -0.0001 
---------------- Step  1350000 ----- CPU =  12499.5433 (sec) ----------------
TotEng   =      7623.0438 KinEng   =      3834.2559 Temp     = 1395546462.1262 
PotEng   =      3788.7879 E_bond   =      3788.7716 E_angle  =         0.0163 
E_dihed  =         0.0000 E_impro  =         0.0000 E_vdwl   =         0.0000 
E_coul   =         0.0000 E_long   =         0.0000 Press    =        -0.0000 
---------------- Step  1360000 ----- CPU =  12592.0626 (sec) ----------------
TotEng   =      7639.2511 KinEng   =      3862.3656 Temp     = 1405777488.2657 
PotEng   =      3776.8855 E_bond   =      3776.8706 E_angle  =         0.0149 
E_dihed  =         0.0000 E_impro  =         0.0000 E_vdwl   =         0.0000 
E_coul   =         0.0000 E_long   =         0.0000 Press    =         0.0000 
---------------- Step  1370000 ----- CPU =  12684.5540 (sec) ----------------
TotEng   =      7576.8390 KinEng   =      3646.0980 Temp     = 1327062988.7758 
PotEng   =      3930.7410 E_bond   =      3930.7236 E_angle  =         0.0174 
E_dihed  =         0.0000 E_impro  =         0.0000 E_vdwl   =         0.0000 
E_coul   =         0.0000 E_long   =         0.0000 Press    =        -0.0004 
---------------- Step  1380000 ----- CPU =  12777.0479 (sec) ----------------
TotEng   =      7485.1481 KinEng   =      3657.6749 Temp     = 1331276628.4122 
PotEng   =      3827.4732 E_bond   =      3827.4575 E_angle  =         0.0156 
E_dihed  =         0.0000 E_impro  =         0.0000 E_vdwl   =         0.0000 
E_coul   =         0.0000 E_long   =         0.0000 Press    =        -0.0002 
---------------- Step  1390000 ----- CPU =  12869.5848 (sec) ----------------
TotEng   =      7423.0456 KinEng   =      3731.1649 Temp     = 1358024622.9363 
PotEng   =      3691.8807 E_bond   =      3691.8643 E_angle  =         0.0163 
E_dihed  =         0.0000 E_impro  =         0.0000 E_vdwl   =         0.0000 
E_coul   =         0.0000 E_long   =         0.0000 Press    =        -0.0000 
---------------- Step  1400000 ----- CPU =  12962.0957 (sec) ----------------
TotEng   =      7293.3947 KinEng   =      3434.4674 Temp     = 1250036213.7208 
PotEng   =      3858.9273 E_bond   =      3858.9092 E_angle  =         0.0181 
E_dihed  =         0.0000 E_impro  =         0.0000 E_vdwl   =         0.0000 
E_coul   =         0.0000 E_long   =         0.0000 Press    =        -0.0005 
---------------- Step  1410000 ----- CPU =  13054.5575 (sec) ----------------
TotEng   =      7319.8937 KinEng   =      3501.3070 Temp     = 1274363695.4870 
PotEng   =      3818.5867 E_bond   =      3818.5700 E_angle  =         0.0168 
E_dihed  =         0.0000 E_impro  =         0.0000 E_vdwl   =         0.0000 
E_coul   =         0.0000 E_long   =         0.0000 Press    =        -0.0004 
---------------- Step  1420000 ----- CPU =  13147.0573 (sec) ----------------
TotEng   =      7294.5935 KinEng   =      3416.0557 Temp     = 1243334959.9858 
PotEng   =      3878.5378 E_bond   =      3878.5203 E_angle  =         0.0175 
E_dihed  =         0.0000 E_impro  =         0.0000 E_vdwl   =         0.0000 
E_coul   =         0.0000 E_long   =         0.0000 Press    =        -0.0005 
---------------- Step  1430000 ----- CPU =  13239.5185 (sec) ----------------
TotEng   =      7359.3859 KinEng   =      3429.1906 Temp     = 1248115641.3064 
PotEng   =      3930.1953 E_bond   =      3930.1791 E_angle  =         0.0163 
E_dihed  =         0.0000 E_impro  =         0.0000 E_vdwl   =         0.0000 
E_coul   =         0.0000 E_long   =         0.0000 Press    =        -0.0006 
---------------- Step  1440000 ----- CPU =  13331.9706 (sec) ----------------
TotEng   =      7240.2369 KinEng   =      3696.7057 Temp     = 1345482576.3653 
PotEng   =      3543.5312 E_bond   =      3543.5161 E_angle  =         0.0151 
E_dihed  =         0.0000 E_impro  =         0.0000 E_vdwl   =         0.0000 
E_coul   =         0.0000 E_long   =         0.0000 Press    =         0.0001 
---------------- Step  1450000 ----- CPU =  13424.4105 (sec) ----------------
TotEng   =      7320.5199 KinEng   =      3653.6751 Temp     = 1329820807.1835 
PotEng   =      3666.8449 E_bond   =      3666.8283 E_angle  =         0.0165 
E_dihed  =         0.0000 E_impro  =         0.0000 E_vdwl   =         0.0000 
E_coul   =         0.0000 E_long   =         0.0000 Press    =        -0.0001 
---------------- Step  1460000 ----- CPU =  13516.9362 (sec) ----------------
TotEng   =      7308.7649 KinEng   =      3747.1963 Temp     = 1363859540.1199 
PotEng   =      3561.5685 E_bond   =      3561.5524 E_angle  =         0.0161 
E_dihed  =         0.0000 E_impro  =         0.0000 E_vdwl   =         0.0000 
E_coul   =         0.0000 E_long   =         0.0000 Press    =         0.0001 
---------------- Step  1470000 ----- CPU =  13609.3897 (sec) ----------------
TotEng   =      7302.0065 KinEng   =      3671.9206 Temp     = 1336461581.0308 
PotEng   =      3630.0859 E_bond   =      3630.0673 E_angle  =         0.0186 
E_dihed  =         0.0000 E_impro  =         0.0000 E_vdwl   =         0.0000 
E_coul   =         0.0000 E_long   =         0.0000 Press    =        -0.0000 
---------------- Step  1480000 ----- CPU =  13702.3349 (sec) ----------------
TotEng   =      7326.4717 KinEng   =      3604.4612 Temp     = 1311908539.4271 
PotEng   =      3722.0105 E_bond   =      3721.9928 E_angle  =         0.0177 
E_dihed  =         0.0000 E_impro  =         0.0000 E_vdwl   =         0.0000 
E_coul   =         0.0000 E_long   =         0.0000 Press    =        -0.0002 
---------------- Step  1490000 ----- CPU =  13796.7467 (sec) ----------------
TotEng   =      7480.5020 KinEng   =      3440.1304 Temp     = 1252097367.3248 
PotEng   =      4040.3717 E_bond   =      4040.3542 E_angle  =         0.0175 
E_dihed  =         0.0000 E_impro  =         0.0000 E_vdwl   =         0.0000 
E_coul   =         0.0000 E_long   =         0.0000 Press    =        -0.0007 
---------------- Step  1500000 ----- CPU =  13889.2422 (sec) ----------------
TotEng   =      7419.6572 KinEng   =      3396.5484 Temp     = 1236234914.0346 
PotEng   =      4023.1088 E_bond   =      4023.0921 E_angle  =         0.0167 
E_dihed  =         0.0000 E_impro  =         0.0000 E_vdwl   =         0.0000 
E_coul   =         0.0000 E_long   =         0.0000 Press    =        -0.0007 
---------------- Step  1510000 ----- CPU =  13981.7095 (sec) ----------------
TotEng   =      7368.8764 KinEng   =      3791.3799 Temp     = 1379940952.4032 
PotEng   =      3577.4965 E_bond   =      3577.4803 E_angle  =         0.0162 
E_dihed  =         0.0000 E_impro  =         0.0000 E_vdwl   =         0.0000 
E_coul   =         0.0000 E_long   =         0.0000 Press    =         0.0001 
---------------- Step  1520000 ----- CPU =  14074.2031 (sec) ----------------
TotEng   =      7455.3941 KinEng   =      3630.8004 Temp     = 1321495153.2911 
PotEng   =      3824.5937 E_bond   =      3824.5770 E_angle  =         0.0167 
E_dihed  =         0.0000 E_impro  =         0.0000 E_vdwl   =         0.0000 
E_coul   =         0.0000 E_long   =         0.0000 Press    =        -0.0003 
---------------- Step  1530000 ----- CPU =  14166.6895 (sec) ----------------
TotEng   =      7466.2946 KinEng   =      3651.0394 Temp     = 1328861510.9456 
PotEng   =      3815.2552 E_bond   =      3815.2396 E_angle  =         0.0156 
E_dihed  =         0.0000 E_impro  =         0.0000 E_vdwl   =         0.0000 
E_coul   =         0.0000 E_long   =         0.0000 Press    =        -0.0002 
---------------- Step  1540000 ----- CPU =  14259.1744 (sec) ----------------
TotEng   =      7475.3904 KinEng   =      3745.8320 Temp     = 1363362974.4045 
PotEng   =      3729.5584 E_bond   =      3729.5419 E_angle  =         0.0165 
E_dihed  =         0.0000 E_impro  =         0.0000 E_vdwl   =         0.0000 
E_coul   =         0.0000 E_long   =         0.0000 Press    =        -0.0001 
---------------- Step  1550000 ----- CPU =  14351.6792 (sec) ----------------
TotEng   =      7511.7239 KinEng   =      3531.4295 Temp     = 1285327328.3495 
PotEng   =      3980.2944 E_bond   =      3980.2771 E_angle  =         0.0173 
E_dihed  =         0.0000 E_impro  =         0.0000 E_vdwl   =         0.0000 
E_coul   =         0.0000 E_long   =         0.0000 Press    =        -0.0005 
---------------- Step  1560000 ----- CPU =  14444.1821 (sec) ----------------
TotEng   =      7482.4068 KinEng   =      3662.7414 Temp     = 1333120671.9617 
PotEng   =      3819.6654 E_bond   =      3819.6492 E_angle  =         0.0162 
E_dihed  =         0.0000 E_impro  =         0.0000 E_vdwl   =         0.0000 
E_coul   =         0.0000 E_long   =         0.0000 Press    =        -0.0002 
---------------- Step  1570000 ----- CPU =  14536.6272 (sec) ----------------
TotEng   =      7516.4839 KinEng   =      3950.3123 Temp     = 1437787277.5090 
PotEng   =      3566.1716 E_bond   =      3566.1543 E_angle  =         0.0173 
E_dihed  =         0.0000 E_impro  =         0.0000 E_vdwl   =         0.0000 
E_coul   =         0.0000 E_long   =         0.0000 Press    =         0.0003 
---------------- Step  1580000 ----- CPU =  14629.1546 (sec) ----------------
TotEng   =      7558.4217 KinEng   =      4112.0725 Temp     = 1496662808.8552 
PotEng   =      3446.3492 E_bond   =      3446.3336 E_angle  =         0.0156 
E_dihed  =         0.0000 E_impro  =         0.0000 E_vdwl   =         0.0000 
E_coul   =         0.0000 E_long   =         0.0000 Press    =         0.0006 
---------------- Step  1590000 ----- CPU =  14721.6790 (sec) ----------------
TotEng   =      7519.3057 KinEng   =      3847.9940 Temp     = 1400546688.4511 
PotEng   =      3671.3116 E_bond   =      3671.2955 E_angle  =         0.0161 
E_dihed  =         0.0000 E_impro  =         0.0000 E_vdwl   =         0.0000 
E_coul   =         0.0000 E_long   =         0.0000 Press    =         0.0001 
---------------- Step  1600000 ----- CPU =  14814.1461 (sec) ----------------
TotEng   =      7454.6198 KinEng   =      3690.2021 Temp     = 1343115459.5916 
PotEng   =      3764.4177 E_bond   =      3764.4017 E_angle  =         0.0160 
E_dihed  =         0.0000 E_impro  =         0.0000 E_vdwl   =         0.0000 
E_coul   =         0.0000 E_long   =         0.0000 Press    =        -0.0002 
---------------- Step  1610000 ----- CPU =  14906.6680 (sec) ----------------
TotEng   =      7372.0938 KinEng   =      3677.1248 Temp     = 1338355752.8496 
PotEng   =      3694.9690 E_bond   =      3694.9527 E_angle  =         0.0163 
E_dihed  =         0.0000 E_impro  =         0.0000 E_vdwl   =         0.0000 
E_coul   =         0.0000 E_long   =         0.0000 Press    =        -0.0001 
---------------- Step  1620000 ----- CPU =  14999.1948 (sec) ----------------
TotEng   =      7346.3424 KinEng   =      3488.4393 Temp     = 1269680278.4551 
PotEng   =      3857.9031 E_bond   =      3857.8853 E_angle  =         0.0177 
E_dihed  =         0.0000 E_impro  =         0.0000 E_vdwl   =         0.0000 
E_coul   =         0.0000 E_long   =         0.0000 Press    =        -0.0004 
---------------- Step  1630000 ----- CPU =  15091.6547 (sec) ----------------
TotEng   =      7190.2171 KinEng   =      3669.5715 Temp     = 1335606578.6311 
PotEng   =      3520.6457 E_bond   =      3520.6297 E_angle  =         0.0159 
E_dihed  =         0.0000 E_impro  =         0.0000 E_vdwl   =         0.0000 
E_coul   =         0.0000 E_long   =         0.0000 Press    =         0.0001 
---------------- Step  1640000 ----- CPU =  15184.0803 (sec) ----------------
TotEng   =      7251.2210 KinEng   =      3224.8537 Temp     = 1173743564.9375 
PotEng   =      4026.3673 E_bond   =      4026.3497 E_angle  =         0.0176 
E_dihed  =         0.0000 E_impro  =         0.0000 E_vdwl   =         0.0000 
E_coul   =         0.0000 E_long   =         0.0000 Press    =        -0.0009 
---------------- Step  1650000 ----- CPU =  15276.5807 (sec) ----------------
TotEng   =      7195.6919 KinEng   =      3556.2660 Temp     = 1294367036.4012 
PotEng   =      3639.4258 E_bond   =      3639.4100 E_angle  =         0.0158 
E_dihed  =         0.0000 E_impro  =         0.0000 E_vdwl   =         0.0000 
E_coul   =         0.0000 E_long   =         0.0000 Press    =        -0.0002 
---------------- Step  1660000 ----- CPU =  15369.0710 (sec) ----------------
TotEng   =      7229.8773 KinEng   =      3866.2800 Temp     = 1407202193.3614 
PotEng   =      3363.5973 E_bond   =      3363.5809 E_angle  =         0.0164 
E_dihed  =         0.0000 E_impro  =         0.0000 E_vdwl   =         0.0000 
E_coul   =         0.0000 E_long   =         0.0000 Press    =         0.0004 
---------------- Step  1670000 ----- CPU =  15461.5423 (sec) ----------------
TotEng   =      7267.0695 KinEng   =      3732.2300 Temp     = 1358412298.0481 
PotEng   =      3534.8395 E_bond   =      3534.8238 E_angle  =         0.0157 
E_dihed  =         0.0000 E_impro  =         0.0000 E_vdwl   =         0.0000 
E_coul   =         0.0000 E_long   =         0.0000 Press    =         0.0001 
---------------- Step  1680000 ----- CPU =  15556.1885 (sec) ----------------
TotEng   =      7253.8639 KinEng   =      3668.2882 Temp     = 1335139517.6290 
PotEng   =      3585.5757 E_bond   =      3585.5590 E_angle  =         0.0166 
E_dihed  =         0.0000 E_impro  =         0.0000 E_vdwl   =         0.0000 
E_coul   =         0.0000 E_long   =         0.0000 Press    =         0.0000 
---------------- Step  1690000 ----- CPU =  15648.9684 (sec) ----------------
TotEng   =      7248.1791 KinEng   =      3536.6498 Temp     = 1287227348.3053 
PotEng   =      3711.5293 E_bond   =      3711.5120 E_angle  =         0.0173 
E_dihed  =         0.0000 E_impro  =         0.0000 E_vdwl   =         0.0000 
E_coul   =         0.0000 E_long   =         0.0000 Press    =        -0.0003 
---------------- Step  1700000 ----- CPU =  15741.4468 (sec) ----------------
TotEng   =      7212.6728 KinEng   =      3446.7767 Temp     = 1254516398.8725 
PotEng   =      3765.8962 E_bond   =      3765.8789 E_angle  =         0.0173 
E_dihed  =         0.0000 E_impro  =         0.0000 E_vdwl   =         0.0000 
E_coul   =         0.0000 E_long   =         0.0000 Press    =        -0.0004 
---------------- Step  1710000 ----- CPU =  15833.9389 (sec) ----------------
TotEng   =      7211.4822 KinEng   =      3073.1666 Temp     = 1118534297.4608 
PotEng   =      4138.3155 E_bond   =      4138.2983 E_angle  =         0.0172 
E_dihed  =         0.0000 E_impro  =         0.0000 E_vdwl   =         0.0000 
E_coul   =         0.0000 E_long   =         0.0000 Press    =        -0.0011 
---------------- Step  1720000 ----- CPU =  15926.4626 (sec) ----------------
TotEng   =      7166.8527 KinEng   =      3872.1701 Temp     = 1409345987.9838 
PotEng   =      3294.6826 E_bond   =      3294.6667 E_angle  =         0.0159 
E_dihed  =         0.0000 E_impro  =         0.0000 E_vdwl   =         0.0000 
E_coul   =         0.0000 E_long   =         0.0000 Press    =         0.0005 
---------------- Step  1730000 ----- CPU =  16018.9609 (sec) ----------------
TotEng   =      7196.1975 KinEng   =      3292.9392 Temp     = 1198524488.8386 
PotEng   =      3903.2583 E_bond   =      3903.2411 E_angle  =         0.0172 
E_dihed  =         0.0000 E_impro  =         0.0000 E_vdwl   =         0.0000 
E_coul   =         0.0000 E_long   =         0.0000 Press    =        -0.0007 
---------------- Step  1740000 ----- CPU =  16111.4435 (sec) ----------------
TotEng   =      7146.3521 KinEng   =      3677.3310 Temp     = 1338430797.4724 
PotEng   =      3469.0211 E_bond   =      3469.0031 E_angle  =         0.0180 
E_dihed  =         0.0000 E_impro  =         0.0000 E_vdwl   =         0.0000 
E_coul   =         0.0000 E_long   =         0.0000 Press    =         0.0001 
---------------- Step  1750000 ----- CPU =  16203.9497 (sec) ----------------
TotEng   =      7121.8000 KinEng   =      3399.5464 Temp     = 1237326102.9536 
PotEng   =      3722.2536 E_bond   =      3722.2361 E_angle  =         0.0175 
E_dihed  =         0.0000 E_impro  =         0.0000 E_vdwl   =         0.0000 
E_coul   =         0.0000 E_long   =         0.0000 Press    =        -0.0004 
---------------- Step  1760000 ----- CPU =  16296.3976 (sec) ----------------
TotEng   =      7176.7827 KinEng   =      3140.9621 Temp     = 1143209692.3630 
PotEng   =      4035.8206 E_bond   =      4035.8044 E_angle  =         0.0162 
E_dihed  =         0.0000 E_impro  =         0.0000 E_vdwl   =         0.0000 
E_coul   =         0.0000 E_long   =         0.0000 Press    =        -0.0010 
---------------- Step  1770000 ----- CPU =  16388.8628 (sec) ----------------
TotEng   =      7139.3693 KinEng   =      3068.7465 Temp     = 1116925539.2284 
PotEng   =      4070.6227 E_bond   =      4070.6063 E_angle  =         0.0164 
E_dihed  =         0.0000 E_impro  =         0.0000 E_vdwl   =         0.0000 
E_coul   =         0.0000 E_long   =         0.0000 Press    =        -0.0011 
---------------- Step  1780000 ----- CPU =  16481.3900 (sec) ----------------
TotEng   =      7100.1802 KinEng   =      3550.5812 Temp     = 1292297944.6954 
PotEng   =      3549.5990 E_bond   =      3549.5821 E_angle  =         0.0169 
E_dihed  =         0.0000 E_impro  =         0.0000 E_vdwl   =         0.0000 
E_coul   =         0.0000 E_long   =         0.0000 Press    =        -0.0001 
---------------- Step  1790000 ----- CPU =  16573.8732 (sec) ----------------
TotEng   =      7065.6425 KinEng   =      3593.3563 Temp     = 1307866695.3617 
PotEng   =      3472.2862 E_bond   =      3472.2700 E_angle  =         0.0162 
E_dihed  =         0.0000 E_impro  =         0.0000 E_vdwl   =         0.0000 
E_coul   =         0.0000 E_long   =         0.0000 Press    =         0.0000 
---------------- Step  1800000 ----- CPU =  16666.3478 (sec) ----------------
TotEng   =      6996.8400 KinEng   =      3833.0537 Temp     = 1395108874.3068 
PotEng   =      3163.7864 E_bond   =      3163.7702 E_angle  =         0.0162 
E_dihed  =         0.0000 E_impro  =         0.0000 E_vdwl   =         0.0000 
E_coul   =         0.0000 E_long   =         0.0000 Press    =         0.0006 
---------------- Step  1810000 ----- CPU =  16758.8662 (sec) ----------------
TotEng   =      7014.5511 KinEng   =      3399.6592 Temp     = 1237367154.2910 
PotEng   =      3614.8919 E_bond   =      3614.8760 E_angle  =         0.0159 
E_dihed  =         0.0000 E_impro  =         0.0000 E_vdwl   =         0.0000 
E_coul   =         0.0000 E_long   =         0.0000 Press    =        -0.0003 
---------------- Step  1820000 ----- CPU =  16851.3122 (sec) ----------------
TotEng   =      7000.6900 KinEng   =      3556.5005 Temp     = 1294452354.1047 
PotEng   =      3444.1896 E_bond   =      3444.1725 E_angle  =         0.0171 
E_dihed  =         0.0000 E_impro  =         0.0000 E_vdwl   =         0.0000 
E_coul   =         0.0000 E_long   =         0.0000 Press    =         0.0000 
---------------- Step  1830000 ----- CPU =  16943.7666 (sec) ----------------
TotEng   =      6926.1625 KinEng   =      3399.4369 Temp     = 1237286234.5771 
PotEng   =      3526.7257 E_bond   =      3526.7092 E_angle  =         0.0165 
E_dihed  =         0.0000 E_impro  =         0.0000 E_vdwl   =         0.0000 
E_coul   =         0.0000 E_long   =         0.0000 Press    =        -0.0002 
---------------- Step  1840000 ----- CPU =  17036.2417 (sec) ----------------
TotEng   =      6912.3252 KinEng   =      3333.8555 Temp     = 1213416723.3482 
PotEng   =      3578.4696 E_bond   =      3578.4533 E_angle  =         0.0164 
E_dihed  =         0.0000 E_impro  =         0.0000 E_vdwl   =         0.0000 
E_coul   =         0.0000 E_long   =         0.0000 Press    =        -0.0003 
---------------- Step  1850000 ----- CPU =  17128.7625 (sec) ----------------
TotEng   =      6837.0158 KinEng   =      3559.1458 Temp     = 1295415185.1505 
PotEng   =      3277.8700 E_bond   =      3277.8533 E_angle  =         0.0167 
E_dihed  =         0.0000 E_impro  =         0.0000 E_vdwl   =         0.0000 
E_coul   =         0.0000 E_long   =         0.0000 Press    =         0.0002 
---------------- Step  1860000 ----- CPU =  17221.2143 (sec) ----------------
TotEng   =      6893.2444 KinEng   =      3220.4554 Temp     = 1172142720.0801 
PotEng   =      3672.7890 E_bond   =      3672.7710 E_angle  =         0.0180 
E_dihed  =         0.0000 E_impro  =         0.0000 E_vdwl   =         0.0000 
E_coul   =         0.0000 E_long   =         0.0000 Press    =        -0.0005 
---------------- Step  1870000 ----- CPU =  17315.8022 (sec) ----------------
TotEng   =      6850.5835 KinEng   =      3732.3886 Temp     = 1358470019.6904 
PotEng   =      3118.1948 E_bond   =      3118.1780 E_angle  =         0.0168 
E_dihed  =         0.0000 E_impro  =         0.0000 E_vdwl   =         0.0000 
E_coul   =         0.0000 E_long   =         0.0000 Press    =         0.0005 
---------------- Step  1880000 ----- CPU =  17408.1863 (sec) ----------------
TotEng   =      6835.6154 KinEng   =      3497.4367 Temp     = 1272955027.9904 
PotEng   =      3338.1787 E_bond   =      3338.1619 E_angle  =         0.0168 
E_dihed  =         0.0000 E_impro  =         0.0000 E_vdwl   =         0.0000 
E_coul   =         0.0000 E_long   =         0.0000 Press    =         0.0001 
---------------- Step  1890000 ----- CPU =  17500.1972 (sec) ----------------
TotEng   =      6813.7870 KinEng   =      3223.3342 Temp     = 1173190492.5384 
PotEng   =      3590.4528 E_bond   =      3590.4368 E_angle  =         0.0160 
E_dihed  =         0.0000 E_impro  =         0.0000 E_vdwl   =         0.0000 
E_coul   =         0.0000 E_long   =         0.0000 Press    =        -0.0004 
---------------- Step  1900000 ----- CPU =  17592.2460 (sec) ----------------
TotEng   =      6871.5423 KinEng   =      3203.6115 Temp     = 1166012068.2476 
PotEng   =      3667.9308 E_bond   =      3667.9133 E_angle  =         0.0175 
E_dihed  =         0.0000 E_impro  =         0.0000 E_vdwl   =         0.0000 
E_coul   =         0.0000 E_long   =         0.0000 Press    =        -0.0005 
---------------- Step  1910000 ----- CPU =  17684.3108 (sec) ----------------
TotEng   =      6868.4224 KinEng   =      3271.0813 Temp     = 1190568928.5418 
PotEng   =      3597.3410 E_bond   =      3597.3247 E_angle  =         0.0164 
E_dihed  =         0.0000 E_impro  =         0.0000 E_vdwl   =         0.0000 
E_coul   =         0.0000 E_long   =         0.0000 Press    =        -0.0004 
---------------- Step  1920000 ----- CPU =  17776.2934 (sec) ----------------
TotEng   =      6825.7447 KinEng   =      3087.1474 Temp     = 1123622874.4173 
PotEng   =      3738.5973 E_bond   =      3738.5819 E_angle  =         0.0154 
E_dihed  =         0.0000 E_impro  =         0.0000 E_vdwl   =         0.0000 
E_coul   =         0.0000 E_long   =         0.0000 Press    =        -0.0007 
---------------- Step  1930000 ----- CPU =  17868.2694 (sec) ----------------
TotEng   =      6849.5119 KinEng   =      3176.6349 Temp     = 1156193437.3742 
PotEng   =      3672.8770 E_bond   =      3672.8603 E_angle  =         0.0167 
E_dihed  =         0.0000 E_impro  =         0.0000 E_vdwl   =         0.0000 
E_coul   =         0.0000 E_long   =         0.0000 Press    =        -0.0006 
---------------- Step  1940000 ----- CPU =  17960.3261 (sec) ----------------
TotEng   =      6903.3958 KinEng   =      3384.4683 Temp     = 1231838161.2226 
PotEng   =      3518.9275 E_bond   =      3518.9118 E_angle  =         0.0157 
E_dihed  =         0.0000 E_impro  =         0.0000 E_vdwl   =         0.0000 
E_coul   =         0.0000 E_long   =         0.0000 Press    =        -0.0002 
---------------- Step  1950000 ----- CPU =  18052.3766 (sec) ----------------
TotEng   =      6865.3514 KinEng   =      3218.3665 Temp     = 1171382419.5366 
PotEng   =      3646.9848 E_bond   =      3646.9682 E_angle  =         0.0167 
E_dihed  =         0.0000 E_impro  =         0.0000 E_vdwl   =         0.0000 
E_coul   =         0.0000 E_long   =         0.0000 Press    =        -0.0005 
[...]
PotEng   =     99156.2921 E_bond   =     99156.2718 E_angle  =         0.0203 
E_dihed  =         0.0000 E_impro  =         0.0000 E_vdwl   =         0.0000 
E_coul   =         0.0000 E_long   =         0.0000 Press    =        -0.0094 
---------------- Step 25940000 ----- CPU = 233804.3090 (sec) ----------------
TotEng   =    188175.9068 KinEng   =     95492.2223 Temp     = 34756113036.6235 
PotEng   =     92683.6845 E_bond   =     92683.6649 E_angle  =         0.0196 
E_dihed  =         0.0000 E_impro  =         0.0000 E_vdwl   =         0.0000 
E_coul   =         0.0000 E_long   =         0.0000 Press    =         0.0024 
---------------- Step 25950000 ----- CPU = 233894.1054 (sec) ----------------
TotEng   =    175242.5373 KinEng   =     84309.7637 Temp     = 30686055950.0961 
PotEng   =     90932.7736 E_bond   =     90932.7530 E_angle  =         0.0207 
E_dihed  =         0.0000 E_impro  =         0.0000 E_vdwl   =         0.0000 
E_coul   =         0.0000 E_long   =         0.0000 Press    =        -0.0070 
---------------- Step 25960000 ----- CPU = 233983.8989 (sec) ----------------
TotEng   =    183394.8315 KinEng   =     98725.9963 Temp     = 35933103289.6133 
PotEng   =     84668.8352 E_bond   =     84668.8154 E_angle  =         0.0198 
E_dihed  =         0.0000 E_impro  =         0.0000 E_vdwl   =         0.0000 
E_coul   =         0.0000 E_long   =         0.0000 Press    =         0.0137 
---------------- Step 25970000 ----- CPU = 234073.6960 (sec) ----------------
TotEng   =    180369.8425 KinEng   =     91334.8414 Temp     = 33242959423.3391 
PotEng   =     89035.0011 E_bond   =     89034.9811 E_angle  =         0.0200 
E_dihed  =         0.0000 E_impro  =         0.0000 E_vdwl   =         0.0000 
E_coul   =         0.0000 E_long   =         0.0000 Press    =         0.0019 
---------------- Step 25980000 ----- CPU = 234163.4941 (sec) ----------------
TotEng   =    183970.4773 KinEng   =     87018.7173 Temp     = 31672028377.0521 
PotEng   =     96951.7600 E_bond   =     96951.7393 E_angle  =         0.0207 
E_dihed  =         0.0000 E_impro  =         0.0000 E_vdwl   =         0.0000 
E_coul   =         0.0000 E_long   =         0.0000 Press    =        -0.0103 
---------------- Step 25990000 ----- CPU = 234253.4331 (sec) ----------------
TotEng   =    188492.7301 KinEng   =     88069.8485 Temp     = 32054606482.0309 
PotEng   =    100422.8816 E_bond   =    100422.8610 E_angle  =         0.0206 
E_dihed  =         0.0000 E_impro  =         0.0000 E_vdwl   =         0.0000 
E_coul   =         0.0000 E_long   =         0.0000 Press    =        -0.0128 
---------------- Step 26000000 ----- CPU = 234343.2026 (sec) ----------------
TotEng   =    179469.1977 KinEng   =     83435.2572 Temp     = 30367763567.6969 
PotEng   =     96033.9405 E_bond   =     96033.9217 E_angle  =         0.0188 
E_dihed  =         0.0000 E_impro  =         0.0000 E_vdwl   =         0.0000 
E_coul   =         0.0000 E_long   =         0.0000 Press    =        -0.0130 
---------------- Step 26010000 ----- CPU = 234432.9104 (sec) ----------------
TotEng   =    179083.7098 KinEng   =     88697.3211 Temp     = 32282986444.3726 
PotEng   =     90386.3887 E_bond   =     90386.3692 E_angle  =         0.0195 
E_dihed  =         0.0000 E_impro  =         0.0000 E_vdwl   =         0.0000 
E_coul   =         0.0000 E_long   =         0.0000 Press    =        -0.0021 
---------------- Step 26020000 ----- CPU = 234522.7763 (sec) ----------------
TotEng   =    179607.2111 KinEng   =     86245.2300 Temp     = 31390503755.2576 
PotEng   =     93361.9811 E_bond   =     93361.9610 E_angle  =         0.0201 
E_dihed  =         0.0000 E_impro  =         0.0000 E_vdwl   =         0.0000 
E_coul   =         0.0000 E_long   =         0.0000 Press    =        -0.0075 
---------------- Step 26030000 ----- CPU = 234612.5128 (sec) ----------------
TotEng   =    196046.0529 KinEng   =     95173.9679 Temp     = 34640278625.8973 
PotEng   =    100872.0850 E_bond   =    100872.0643 E_angle  =         0.0206 
E_dihed  =         0.0000 E_impro  =         0.0000 E_vdwl   =         0.0000 
E_coul   =         0.0000 E_long   =         0.0000 Press    =        -0.0061 
---------------- Step 26040000 ----- CPU = 234702.3852 (sec) ----------------
TotEng   =    198782.8994 KinEng   =     92266.6888 Temp     = 33582122058.3499 
PotEng   =    106516.2106 E_bond   =    106516.1901 E_angle  =         0.0205 
E_dihed  =         0.0000 E_impro  =         0.0000 E_vdwl   =         0.0000 
E_coul   =         0.0000 E_long   =         0.0000 Press    =        -0.0147 
---------------- Step 26050000 ----- CPU = 234792.1686 (sec) ----------------
TotEng   =    203972.5687 KinEng   =     97157.3940 Temp     = 35362182245.2791 
PotEng   =    106815.1746 E_bond   =    106815.1530 E_angle  =         0.0217 
E_dihed  =         0.0000 E_impro  =         0.0000 E_vdwl   =         0.0000 
E_coul   =         0.0000 E_long   =         0.0000 Press    =        -0.0101 
---------------- Step 26060000 ----- CPU = 234881.9226 (sec) ----------------
TotEng   =    201298.7617 KinEng   =    105255.8891 Temp     = 38309775304.7486 
PotEng   =     96042.8726 E_bond   =     96042.8518 E_angle  =         0.0208 
E_dihed  =         0.0000 E_impro  =         0.0000 E_vdwl   =         0.0000 
E_coul   =         0.0000 E_long   =         0.0000 Press    =         0.0088 
---------------- Step 26070000 ----- CPU = 234971.6891 (sec) ----------------
TotEng   =    195174.2162 KinEng   =     95589.8856 Temp     = 34791659347.9125 
PotEng   =     99584.3306 E_bond   =     99584.3079 E_angle  =         0.0227 
E_dihed  =         0.0000 E_impro  =         0.0000 E_vdwl   =         0.0000 
E_coul   =         0.0000 E_long   =         0.0000 Press    =        -0.0044 
---------------- Step 26080000 ----- CPU = 235061.5752 (sec) ----------------
TotEng   =    188342.0071 KinEng   =    101015.4319 Temp     = 36766384567.3156 
PotEng   =     87326.5753 E_bond   =     87326.5549 E_angle  =         0.0204 
E_dihed  =         0.0000 E_impro  =         0.0000 E_vdwl   =         0.0000 
E_coul   =         0.0000 E_long   =         0.0000 Press    =         0.0133 
---------------- Step 26090000 ----- CPU = 235151.4760 (sec) ----------------
TotEng   =    186459.0981 KinEng   =     90816.8333 Temp     = 33054421055.9780 
PotEng   =     95642.2647 E_bond   =     95642.2434 E_angle  =         0.0214 
E_dihed  =         0.0000 E_impro  =         0.0000 E_vdwl   =         0.0000 
E_coul   =         0.0000 E_long   =         0.0000 Press    =        -0.0052 
---------------- Step 26100000 ----- CPU = 235241.2200 (sec) ----------------
TotEng   =    182528.4330 KinEng   =     96823.7167 Temp     = 35240734389.0620 
PotEng   =     85704.7163 E_bond   =     85704.6952 E_angle  =         0.0211 
E_dihed  =         0.0000 E_impro  =         0.0000 E_vdwl   =         0.0000 
E_coul   =         0.0000 E_long   =         0.0000 Press    =         0.0107 
---------------- Step 26110000 ----- CPU = 235331.0960 (sec) ----------------
TotEng   =    179395.4412 KinEng   =     91543.9039 Temp     = 33319051466.3821 
PotEng   =     87851.5373 E_bond   =     87851.5178 E_angle  =         0.0195 
E_dihed  =         0.0000 E_impro  =         0.0000 E_vdwl   =         0.0000 
E_coul   =         0.0000 E_long   =         0.0000 Press    =         0.0033 
---------------- Step 26120000 ----- CPU = 235420.8721 (sec) ----------------
TotEng   =    189456.5702 KinEng   =     84994.3785 Temp     = 30935233841.2681 
PotEng   =    104462.1917 E_bond   =    104462.1711 E_angle  =         0.0206 
E_dihed  =         0.0000 E_impro  =         0.0000 E_vdwl   =         0.0000 
E_coul   =         0.0000 E_long   =         0.0000 Press    =        -0.0199 
---------------- Step 26130000 ----- CPU = 235510.6212 (sec) ----------------
TotEng   =    194177.8736 KinEng   =     92751.9069 Temp     = 33758725934.6218 
PotEng   =    101425.9667 E_bond   =    101425.9457 E_angle  =         0.0210 
E_dihed  =         0.0000 E_impro  =         0.0000 E_vdwl   =         0.0000 
E_coul   =         0.0000 E_long   =         0.0000 Press    =        -0.0091 
---------------- Step 26140000 ----- CPU = 235600.3289 (sec) ----------------
TotEng   =    192052.5379 KinEng   =     97553.6119 Temp     = 35506392879.1373 
PotEng   =     94498.9260 E_bond   =     94498.9057 E_angle  =         0.0203 
E_dihed  =         0.0000 E_impro  =         0.0000 E_vdwl   =         0.0000 
E_coul   =         0.0000 E_long   =         0.0000 Press    =         0.0027 
---------------- Step 26150000 ----- CPU = 235690.2516 (sec) ----------------
TotEng   =    197515.4011 KinEng   =     96100.6771 Temp     = 34977571115.4439 
PotEng   =    101414.7240 E_bond   =    101414.7032 E_angle  =         0.0208 
E_dihed  =         0.0000 E_impro  =         0.0000 E_vdwl   =         0.0000 
E_coul   =         0.0000 E_long   =         0.0000 Press    =        -0.0057 
---------------- Step 26160000 ----- CPU = 235780.0993 (sec) ----------------
TotEng   =    195228.6811 KinEng   =     99059.0383 Temp     = 36054319925.8262 
PotEng   =     96169.6427 E_bond   =     96169.6227 E_angle  =         0.0201 
E_dihed  =         0.0000 E_impro  =         0.0000 E_vdwl   =         0.0000 
E_coul   =         0.0000 E_long   =         0.0000 Press    =         0.0025 
---------------- Step 26170000 ----- CPU = 235869.9046 (sec) ----------------
TotEng   =    187311.8916 KinEng   =    102328.0694 Temp     = 37244142602.9791 
PotEng   =     84983.8222 E_bond   =     84983.8031 E_angle  =         0.0191 
E_dihed  =         0.0000 E_impro  =         0.0000 E_vdwl   =         0.0000 
E_coul   =         0.0000 E_long   =         0.0000 Press    =         0.0170 
---------------- Step 26180000 ----- CPU = 235959.7409 (sec) ----------------
TotEng   =    195404.8834 KinEng   =     92989.8099 Temp     = 33845314996.8276 
PotEng   =    102415.0735 E_bond   =    102415.0527 E_angle  =         0.0208 
E_dihed  =         0.0000 E_impro  =         0.0000 E_vdwl   =         0.0000 
E_coul   =         0.0000 E_long   =         0.0000 Press    =        -0.0098 
---------------- Step 26190000 ----- CPU = 236049.7976 (sec) ----------------
TotEng   =    199182.0232 KinEng   =     92286.1556 Temp     = 33589207360.8618 
PotEng   =    106895.8676 E_bond   =    106895.8464 E_angle  =         0.0212 
E_dihed  =         0.0000 E_impro  =         0.0000 E_vdwl   =         0.0000 
E_coul   =         0.0000 E_long   =         0.0000 Press    =        -0.0150 
---------------- Step 26200000 ----- CPU = 236139.8249 (sec) ----------------
TotEng   =    196335.7652 KinEng   =     97671.2070 Temp     = 35549193738.9665 
PotEng   =     98664.5581 E_bond   =     98664.5381 E_angle  =         0.0201 
E_dihed  =         0.0000 E_impro  =         0.0000 E_vdwl   =         0.0000 
E_coul   =         0.0000 E_long   =         0.0000 Press    =        -0.0014 
---------------- Step 26210000 ----- CPU = 236229.8106 (sec) ----------------
TotEng   =    202289.5176 KinEng   =    103016.2465 Temp     = 37494617059.5277 
PotEng   =     99273.2711 E_bond   =     99273.2491 E_angle  =         0.0220 
E_dihed  =         0.0000 E_impro  =         0.0000 E_vdwl   =         0.0000 
E_coul   =         0.0000 E_long   =         0.0000 Press    =         0.0033 
---------------- Step 26220000 ----- CPU = 236319.7992 (sec) ----------------
TotEng   =    210153.9321 KinEng   =     98916.1232 Temp     = 36002303378.1347 
PotEng   =    111237.8089 E_bond   =    111237.7881 E_angle  =         0.0208 
E_dihed  =         0.0000 E_impro  =         0.0000 E_vdwl   =         0.0000 
E_coul   =         0.0000 E_long   =         0.0000 Press    =        -0.0127 
---------------- Step 26230000 ----- CPU = 236409.7016 (sec) ----------------
TotEng   =    209356.3050 KinEng   =    106814.9185 Temp     = 38877212085.8862 
PotEng   =    102541.3866 E_bond   =    102541.3651 E_angle  =         0.0215 
E_dihed  =         0.0000 E_impro  =         0.0000 E_vdwl   =         0.0000 
E_coul   =         0.0000 E_long   =         0.0000 Press    =         0.0039 
---------------- Step 26240000 ----- CPU = 236499.4649 (sec) ----------------
TotEng   =    202509.9893 KinEng   =     97067.5400 Temp     = 35329478250.0296 
PotEng   =    105442.4493 E_bond   =    105442.4286 E_angle  =         0.0208 
E_dihed  =         0.0000 E_impro  =         0.0000 E_vdwl   =         0.0000 
E_coul   =         0.0000 E_long   =         0.0000 Press    =        -0.0088 
---------------- Step 26250000 ----- CPU = 236589.4919 (sec) ----------------
TotEng   =    215361.0502 KinEng   =    108623.1547 Temp     = 39535352208.1679 
PotEng   =    106737.8955 E_bond   =    106737.8746 E_angle  =         0.0208 
E_dihed  =         0.0000 E_impro  =         0.0000 E_vdwl   =         0.0000 
E_coul   =         0.0000 E_long   =         0.0000 Press    =         0.0015 
---------------- Step 26260000 ----- CPU = 236679.7869 (sec) ----------------
TotEng   =    209429.2364 KinEng   =    111238.5830 Temp     = 40487284416.5961 
PotEng   =     98190.6534 E_bond   =     98190.6326 E_angle  =         0.0208 
E_dihed  =         0.0000 E_impro  =         0.0000 E_vdwl   =         0.0000 
E_coul   =         0.0000 E_long   =         0.0000 Press    =         0.0127 
---------------- Step 26270000 ----- CPU = 236769.8620 (sec) ----------------
TotEng   =    212763.6782 KinEng   =    110206.8656 Temp     = 40111772307.4588 
PotEng   =    102556.8126 E_bond   =    102556.7915 E_angle  =         0.0211 
E_dihed  =         0.0000 E_impro  =         0.0000 E_vdwl   =         0.0000 
E_coul   =         0.0000 E_long   =         0.0000 Press    =         0.0072 
---------------- Step 26280000 ----- CPU = 236860.0314 (sec) ----------------
TotEng   =    224500.7005 KinEng   =    114221.2087 Temp     = 41572864728.9483 
PotEng   =    110279.4918 E_bond   =    110279.4697 E_angle  =         0.0221 
E_dihed  =         0.0000 E_impro  =         0.0000 E_vdwl   =         0.0000 
E_coul   =         0.0000 E_long   =         0.0000 Press    =         0.0035 
---------------- Step 26290000 ----- CPU = 236949.9529 (sec) ----------------
TotEng   =    213786.8639 KinEng   =    121088.8803 Temp     = 44072477401.8704 
PotEng   =     92697.9836 E_bond   =     92697.9633 E_angle  =         0.0203 
E_dihed  =         0.0000 E_impro  =         0.0000 E_vdwl   =         0.0000 
E_coul   =         0.0000 E_long   =         0.0000 Press    =         0.0280 
---------------- Step 26300000 ----- CPU = 237039.7018 (sec) ----------------
TotEng   =    207236.6175 KinEng   =    110530.6337 Temp     = 40229613515.1283 
PotEng   =     96705.9838 E_bond   =     96705.9631 E_angle  =         0.0207 
E_dihed  =         0.0000 E_impro  =         0.0000 E_vdwl   =         0.0000 
E_coul   =         0.0000 E_long   =         0.0000 Press    =         0.0134 
---------------- Step 26310000 ----- CPU = 237129.5128 (sec) ----------------
TotEng   =    204632.5613 KinEng   =    114834.4838 Temp     = 41796077246.5216 
PotEng   =     89798.0774 E_bond   =     89798.0566 E_angle  =         0.0208 
E_dihed  =         0.0000 E_impro  =         0.0000 E_vdwl   =         0.0000 
E_coul   =         0.0000 E_long   =         0.0000 Press    =         0.0247 
---------------- Step 26320000 ----- CPU = 237219.3126 (sec) ----------------
TotEng   =    196658.5394 KinEng   =     99125.3578 Temp     = 36078458076.4099 
PotEng   =     97533.1816 E_bond   =     97533.1618 E_angle  =         0.0198 
E_dihed  =         0.0000 E_impro  =         0.0000 E_vdwl   =         0.0000 
E_coul   =         0.0000 E_long   =         0.0000 Press    =         0.0012 
---------------- Step 26330000 ----- CPU = 237309.1634 (sec) ----------------
TotEng   =    200601.4598 KinEng   =     99742.5926 Temp     = 36303111800.2211 
PotEng   =    100858.8672 E_bond   =    100858.8475 E_angle  =         0.0198 
E_dihed  =         0.0000 E_impro  =         0.0000 E_vdwl   =         0.0000 
E_coul   =         0.0000 E_long   =         0.0000 Press    =        -0.0015 
---------------- Step 26340000 ----- CPU = 237398.9760 (sec) ----------------
TotEng   =    192946.9123 KinEng   =     89515.4562 Temp     = 32580761443.8840 
PotEng   =    103431.4561 E_bond   =    103431.4364 E_angle  =         0.0197 
E_dihed  =         0.0000 E_impro  =         0.0000 E_vdwl   =         0.0000 
E_coul   =         0.0000 E_long   =         0.0000 Press    =        -0.0143 
---------------- Step 26350000 ----- CPU = 237488.8057 (sec) ----------------
TotEng   =    203389.5498 KinEng   =    100426.1916 Temp     = 36551919945.8164 
PotEng   =    102963.3582 E_bond   =    102963.3381 E_angle  =         0.0202 
E_dihed  =         0.0000 E_impro  =         0.0000 E_vdwl   =         0.0000 
E_coul   =         0.0000 E_long   =         0.0000 Press    =        -0.0029 
---------------- Step 26360000 ----- CPU = 237578.6437 (sec) ----------------
TotEng   =    204174.8491 KinEng   =    102065.1673 Temp     = 37148454650.7610 
PotEng   =    102109.6819 E_bond   =    102109.6610 E_angle  =         0.0209 
E_dihed  =         0.0000 E_impro  =         0.0000 E_vdwl   =         0.0000 
E_coul   =         0.0000 E_long   =         0.0000 Press    =        -0.0004 
---------------- Step 26370000 ----- CPU = 237668.4578 (sec) ----------------
TotEng   =    198689.7447 KinEng   =     95132.7684 Temp     = 34625283320.6234 
PotEng   =    103556.9763 E_bond   =    103556.9548 E_angle  =         0.0214 
E_dihed  =         0.0000 E_impro  =         0.0000 E_vdwl   =         0.0000 
E_coul   =         0.0000 E_long   =         0.0000 Press    =        -0.0088 
---------------- Step 26380000 ----- CPU = 237758.3113 (sec) ----------------
TotEng   =    196080.0498 KinEng   =     95383.5927 Temp     = 34716575329.8406 
PotEng   =    100696.4571 E_bond   =    100696.4370 E_angle  =         0.0201 
E_dihed  =         0.0000 E_impro  =         0.0000 E_vdwl   =         0.0000 
E_coul   =         0.0000 E_long   =         0.0000 Press    =        -0.0057 
---------------- Step 26390000 ----- CPU = 237848.2301 (sec) ----------------
TotEng   =    192524.1709 KinEng   =    101194.9104 Temp     = 36831709000.5772 
PotEng   =     91329.2605 E_bond   =     91329.2420 E_angle  =         0.0185 
E_dihed  =         0.0000 E_impro  =         0.0000 E_vdwl   =         0.0000 
E_coul   =         0.0000 E_long   =         0.0000 Press    =         0.0095 
---------------- Step 26400000 ----- CPU = 237938.0233 (sec) ----------------
TotEng   =    197042.4157 KinEng   =    100491.2837 Temp     = 36575611400.5878 
PotEng   =     96551.1320 E_bond   =     96551.1114 E_angle  =         0.0206 
E_dihed  =         0.0000 E_impro  =         0.0000 E_vdwl   =         0.0000 
E_coul   =         0.0000 E_long   =         0.0000 Press    =         0.0035 
---------------- Step 26410000 ----- CPU = 238027.8294 (sec) ----------------
TotEng   =    181879.8493 KinEng   =     88950.6540 Temp     = 32375191494.6566 
PotEng   =     92929.1953 E_bond   =     92929.1766 E_angle  =         0.0187 
E_dihed  =         0.0000 E_impro  =         0.0000 E_vdwl   =         0.0000 
E_coul   =         0.0000 E_long   =         0.0000 Press    =        -0.0044 
---------------- Step 26420000 ----- CPU = 238117.5767 (sec) ----------------
TotEng   =    187821.8488 KinEng   =     94610.5410 Temp     = 34435209245.1658 
PotEng   =     93211.3078 E_bond   =     93211.2875 E_angle  =         0.0203 
E_dihed  =         0.0000 E_impro  =         0.0000 E_vdwl   =         0.0000 
E_coul   =         0.0000 E_long   =         0.0000 Press    =         0.0010 
---------------- Step 26430000 ----- CPU = 238207.3501 (sec) ----------------
TotEng   =    183282.6768 KinEng   =     72740.7528 Temp     = 26475306202.6023 
PotEng   =    110541.9240 E_bond   =    110541.9035 E_angle  =         0.0205 
E_dihed  =         0.0000 E_impro  =         0.0000 E_vdwl   =         0.0000 
E_coul   =    