ITEM: TIMESTEP
0
ITEM: NUMBER OF ATOMS
200
ITEM: BOX BOUNDS pp pp pp
-500 500
-500 500
-0.05 0.05
ITEM: ATOMS id type xs ys zs
1 1 0.35 0.5 0.5
2 1 0.350997 0.500077 0.5
3 1 0.351992 0.500175 0.5
4 1 0.352983 0.500312 0.5
5 1 0.353972 0.500455 0.5
6 1 0.354972 0.500431 0.5
7 1 0.355972 0.500433 0.5
8 1 0.356971 0.500386 0.5
9 1 0.357971 0.500376 0.5
10 1 0.35897 0.500331 0.5
11 1 0.359969 0.500375 0.5
12 1 0.360969 0.500357 0.5
13 1 0.361964 0.50026 0.5
14 1 0.362937 0.50003 0.5
15 1 0.363927 0.499886 0.5
16 1 0.364926 0.499841 0.5
17 1 0.36592 0.499732 0.5
18 1 0.36691 0.499588 0.5
19 1 0.367907 0.499524 0.5
20 1 0.368897 0.499378 0.5
21 1 0.369885 0.499223 0.5
22 1 0.370878 0.499106 0.5
23 1 0.371863 0.498937 0.5
24 1 0.372855 0.498808 0.5
25 1 0.373855 0.498791 0.5
26 1 0.374843 0.498946 0.5
27 1 0.375831 0.499102 0.5
28 1 0.376831 0.499089 0.5
29 1 0.377825 0.498983 0.5
30 1 0.378788 0.498715 0.5
31 1 0.379691 0.498285 0.5
32 1 0.380536 0.49775 0.5
33 1 0.381372 0.497201 0.5
34 1 0.382179 0.49661 0.5
35 1 0.382912 0.49593 0.5
36 1 0.383613 0.495217 0.5
37 1 0.384382 0.494578 0.5
38 1 0.385202 0.494006 0.5
39 1 0.385904 0.493294 0.5
40 1 0.3867 0.492688 0.5
41 1 0.387373 0.491949 0.5
42 1 0.387993 0.491164 0.5
43 1 0.388541 0.490328 0.5
44 1 0.388984 0.489431 0.5
45 1 0.389449 0.488546 0.5
46 1 0.38993 0.487669 0.5
47 1 0.390356 0.486764 0.5
48 1 0.390683 0.485819 0.5
49 1 0.391056 0.484891 0.5
50 1 0.391583 0.484041 0.5
51 1 0.392012 0.483138 0.5
52 1 0.392488 0.482259 0.5
53 1 0.392943 0.481368 0.5
54 1 0.393289 0.48043 0.5
55 1 0.393733 0.479534 0.5
56 1 0.394189 0.478644 0.5
57 1 0.394573 0.477721 0.5
58 1 0.394974 0.476805 0.5
59 1 0.395329 0.47587 0.5
60 1 0.395689 0.474937 0.5
61 1 0.395955 0.473973 0.5
62 1 0.396211 0.473006 0.5
63 1 0.396371 0.472019 0.5
64 1 0.396434 0.471021 0.5
65 1 0.396507 0.470024 0.5
66 1 0.396568 0.469026 0.5
67 1 0.396502 0.468028 0.5
68 1 0.396428 0.46703 0.5
69 1 0.396333 0.466035 0.5
70 1 0.396198 0.465044 0.5
71 1 0.396098 0.464049 0.5
72 1 0.396071 0.46305 0.5
73 1 0.396127 0.462051 0.5
74 1 0.396268 0.461061 0.5
75 1 0.396696 0.460157 0.5
76 1 0.397091 0.459239 0.5
77 1 0.397347 0.458272 0.5
78 1 0.397471 0.45728 0.5
79 1 0.397527 0.456281 0.5
80 1 0.397689 0.455294 0.5
81 1 0.397791 0.4543 0.5
82 1 0.397921 0.453308 0.5
83 1 0.398067 0.452319 0.5
84 1 0.39811 0.45132 0.5
85 1 0.398252 0.45033 0.5
86 1 0.398188 0.449332 0.5
87 1 0.398139 0.448333 0.5
88 1 0.398149 0.447333 0.5
89 1 0.398133 0.446333 0.5
90 1 0.398252 0.44534 0.5
91 1 0.398362 0.444346 0.5
92 1 0.398501 0.443356 0.5
93 1 0.398722 0.442381 0.5
94 1 0.399165 0.441484 0.5
95 1 0.399419 0.440517 0.5
96 1 0.399619 0.439537 0.5
97 1 0.39975 0.438546 0.5
98 1 0.399851 0.437551 0.5
99 1 0.399975 0.436559 0.5
100 1 0.400146 0.435573 0.5
101 1 0.400326 0.43459 0.5
102 1 0.400452 0.433598 0.5
103 1 0.40054 0.432602 0.5
104 1 0.400556 0.431602 0.5
105 1 0.4007 0.430612 0.5
106 1 0.400846 0.429623 0.5
107 1 0.400888 0.428624 0.5
108 1 0.400945 0.427626 0.5
109 1 0.401033 0.426629 0.5
110 1 0.401169 0.425639 0.5
111 1 0.401551 0.424715 0.5
112 1 0.402061 0.423854 0.5
113 1 0.402409 0.422917 0.5
114 1 0.402627 0.421941 0.5
115 1 0.402875 0.420972 0.5
116 1 0.403374 0.420106 0.5
117 1 0.403917 0.419266 0.5
118 1 0.404346 0.418362 0.5
119 1 0.404913 0.417539 0.5
120 1 0.4056 0.416812 0.5
121 1 0.406382 0.416189 0.5
122 1 0.407109 0.415502 0.5
123 1 0.407758 0.414741 0.5
124 1 0.408364 0.413946 0.5
125 1 0.408937 0.413126 0.5
126 1 0.409527 0.412319 0.5
127 1 0.410125 0.411518 0.5
128 1 0.410759 0.410745 0.5
129 1 0.411452 0.410023 0.5
130 1 0.412219 0.409382 0.5
131 1 0.412975 0.408727 0.5
132 1 0.413808 0.408174 0.5
133 1 0.414557 0.407511 0.5
134 1 0.415346 0.406896 0.5
135 1 0.4161 0.40624 0.5
136 1 0.416765 0.405493 0.5
137 1 0.41751 0.404826 0.5
138 1 0.418098 0.404017 0.5
139 1 0.41868 0.403204 0.5
140 1 0.419339 0.402452 0.5
141 1 0.419931 0.401645 0.5
142 1 0.420474 0.400806 0.5
143 1 0.421098 0.400025 0.5
144 1 0.421805 0.399318 0.5
145 1 0.422609 0.398723 0.5
146 1 0.423389 0.398096 0.5
147 1 0.424197 0.397508 0.5
148 1 0.425035 0.396962 0.5
149 1 0.425853 0.396386 0.5
150 1 0.426721 0.395891 0.5
151 1 0.427578 0.395375 0.5
152 1 0.428418 0.394833 0.5
153 1 0.429273 0.394313 0.5
154 1 0.430156 0.393844 0.5
155 1 0.431009 0.393323 0.5
156 1 0.431842 0.392769 0.5
157 1 0.432691 0.392241 0.5
158 1 0.43344 0.391578 0.5
159 1 0.434191 0.390918 0.5
160 1 0.434991 0.390317 0.5
161 1 0.43589 0.389881 0.5
162 1 0.436724 0.389328 0.5
163 1 0.437567 0.388791 0.5
164 1 0.438367 0.38819 0.5
165 1 0.43917 0.387595 0.5
166 1 0.439944 0.386961 0.5
167 1 0.440735 0.38635 0.5
168 1 0.441483 0.385686 0.5
169 1 0.442308 0.38512 0.5
170 1 0.4432 0.38467 0.5
171 1 0.444086 0.384206 0.5
172 1 0.444842 0.383551 0.5
173 1 0.4455 0.382798 0.5
174 1 0.446252 0.38214 0.5
175 1 0.447034 0.381515 0.5
176 1 0.447807 0.380881 0.5
177 1 0.448572 0.380237 0.5
178 1 0.449325 0.379579 0.5
179 1 0.450115 0.378966 0.5
180 1 0.450889 0.378333 0.5
181 1 0.451608 0.377639 0.5
182 1 0.452212 0.376841 0.5
183 1 0.45292 0.376135 0.5
184 1 0.453755 0.375584 0.5
185 1 0.454596 0.375043 0.5
186 1 0.455417 0.374473 0.5
187 1 0.456247 0.373914 0.5
188 1 0.457019 0.373279 0.5
189 1 0.457685 0.372534 0.5
190 1 0.458357 0.371792 0.5
191 1 0.458981 0.371011 0.5
192 1 0.459703 0.370319 0.5
193 1 0.460342 0.36955 0.5
194 1 0.460996 0.368793 0.5
195 1 0.46163 0.36802 0.5
196 1 0.462257 0.367241 0.5
197 1 0.462846 0.366433 0.5
198 1 0.463444 0.365632 0.5
199 1 0.464055 0.36484 0.5
200 1 0.464579 0.363988 0.5
ITEM: TIMESTEP
10000
ITEM: NUMBER OF ATOMS
200
ITEM: BOX BOUNDS pp pp pp
-500 500
-500 500
-0.05 0.05
ITEM: ATOMS id type xs ys zs
1 1 0.350137 0.500292 0.263085
2 1 0.351056 0.499913 0.818657
3 1 0.352061 0.49998 0.514072
4 1 0.353014 0.500229 0.965419
5 1 0.353966 0.500457 0.632294
6 1 0.354957 0.500331 0.204367
7 1 0.355935 0.500409 0.407768
8 1 0.356935 0.500525 0.526934
9 1 0.357926 0.500635 0.629425
10 1 0.358938 0.50068 0.910714
11 1 0.359934 0.500529 0.448743
12 1 0.36092 0.500281 0.441826
13 1 0.361908 0.500198 0.359211
14 1 0.362899 0.50021 0.216743
15 1 0.363889 0.50013 0.510581
16 1 0.364876 0.49997 0.482751
17 1 0.365852 0.49985 -0.00184667
18 1 0.366824 0.499623 0.56448
19 1 0.367815 0.499464 0.332592
20 1 0.368807 0.499297 0.747979
21 1 0.369799 0.49915 0.725533
22 1 0.370797 0.49904 0.361608
23 1 0.371809 0.499202 0.359916
24 1 0.372793 0.499341 0.48125
25 1 0.373795 0.499285 0.264405
26 1 0.374789 0.499153 0.0309685
27 1 0.375785 0.499068 0.113452
28 1 0.376766 0.498811 0.392971
29 1 0.37775 0.498547 0.750641
30 1 0.378687 0.498206 0.648693
31 1 0.379655 0.497905 0.27109
32 1 0.380587 0.497583 0.386388
33 1 0.381441 0.497039 0.615817
34 1 0.382188 0.496389 0.167986
35 1 0.383115 0.495981 0.233811
36 1 0.383873 0.495337 0.396841
37 1 0.384514 0.494561 0.350805
38 1 0.385251 0.493858 0.518739
39 1 0.385887 0.493088 0.497672
40 1 0.386644 0.492431 0.478333
41 1 0.387379 0.491733 0.591749
42 1 0.388006 0.490958 0.456617
43 1 0.388638 0.490172 0.578208
44 1 0.389197 0.489336 0.437405
45 1 0.38972 0.488487 0.905021
46 1 0.390135 0.487586 0.751854
47 1 0.390563 0.486669 0.768547
48 1 0.390916 0.485725 0.388243
49 1 0.39129 0.48479 0.429598
50 1 0.391533 0.48381 0.426333
51 1 0.391985 0.482931 0.733294
52 1 0.392455 0.482046 0.585764
53 1 0.392738 0.481112 0.933536
54 1 0.39315 0.480168 0.836569
55 1 0.393329 0.479191 -0.00656425
56 1 0.393854 0.478322 0.652706
57 1 0.394574 0.477627 0.837694
58 1 0.395123 0.476794 0.95223
59 1 0.395401 0.475841 0.344686
60 1 0.395735 0.474896 0.894098
61 1 0.396032 0.473941 0.552149
62 1 0.395887 0.472941 1.04074
63 1 0.39612 0.47195 0.681044
64 1 0.396284 0.470983 0.966498
65 1 0.396373 0.469997 0.651212
66 1 0.396465 0.468995 0.333953
67 1 0.396612 0.467996 0.900015
68 1 0.396504 0.467006 0.4829
69 1 0.396293 0.466051 0.172815
70 1 0.396277 0.465053 0.830145
71 1 0.396213 0.464083 0.369335
72 1 0.396118 0.463075 0.324074
73 1 0.396226 0.46209 0.530901
74 1 0.396291 0.461082 0.699365
75 1 0.396593 0.460143 0.284392
76 1 0.396813 0.459171 0.90193
77 1 0.397191 0.458274 0.347466
78 1 0.397503 0.457333 0.716782
79 1 0.397589 0.456342 0.666012
80 1 0.397845 0.45537 0.379021
81 1 0.397773 0.454367 0.834601
82 1 0.39784 0.453361 0.527071
83 1 0.397881 0.452356 0.562848
84 1 0.397988 0.451382 0.572981
85 1 0.398055 0.450384 0.736164
86 1 0.398306 0.449397 0.990811
87 1 0.398462 0.448404 0.437863
88 1 0.398361 0.447403 0.62412
89 1 0.398632 0.446437 0.806997
90 1 0.398704 0.445456 0.85801
91 1 0.398729 0.444463 0.817609
92 1 0.398935 0.44349 0.966972
93 1 0.399072 0.442507 0.582396
94 1 0.399142 0.441495 0.25446
95 1 0.399126 0.4405 0.880783
96 1 0.399298 0.439508 0.887778
97 1 0.399515 0.43853 1.0021
98 1 0.39976 0.437552 0.699325
99 1 0.40028 0.436663 0.264834
100 1 0.400385 0.435661 0.400059
101 1 0.400447 0.434662 0.690024
102 1 0.400323 0.433666 0.175069
103 1 0.400359 0.43267 0.709432
104 1 0.400434 0.431671 0.713023
105 1 0.400252 0.430695 0.466427
106 1 0.400289 0.429687 0.313599
107 1 0.400436 0.428686 0.20568
108 1 0.400523 0.427704 0.571243
109 1 0.400948 0.426787 0.0872928
110 1 0.40139 0.425894 0.854693
111 1 0.401806 0.424975 0.445602
112 1 0.402148 0.424031 0.260685
113 1 0.402543 0.423109 0.696712
114 1 0.402983 0.422209 0.548019
115 1 0.403408 0.421284 0.404707
116 1 0.403566 0.420292 0.033195
117 1 0.403936 0.419357 0.385775
118 1 0.404435 0.418488 0.569924
119 1 0.405124 0.417773 0.634874
120 1 0.405778 0.416999 0.211072
121 1 0.40648 0.416292 0.973106
122 1 0.407098 0.415517 0.139403
123 1 0.407746 0.414765 0.624029
124 1 0.408502 0.414104 -0.103208
125 1 0.409151 0.413334 -0.0124528
126 1 0.409632 0.412452 0.106472
127 1 0.410121 0.411587 0.344808
128 1 0.410719 0.410771 0.228761
129 1 0.411297 0.40995 0.178481
130 1 0.411928 0.409178 0.0167197
131 1 0.412773 0.408615 0.0251415
132 1 0.413623 0.408036 0.54623
133 1 0.414387 0.407374 0.842638
134 1 0.415215 0.406818 0.290786
135 1 0.416012 0.406196 0.115413
136 1 0.416633 0.405399 0.880979
137 1 0.417342 0.404679 1.03754
138 1 0.417987 0.403914 0.610316
139 1 0.418586 0.403106 0.732777
140 1 0.419201 0.402296 0.608971
141 1 0.41983 0.401496 0.935957
142 1 0.420583 0.400871 0.351306
143 1 0.421263 0.400134 0.931757
144 1 0.421911 0.399385 0.942327
145 1 0.422637 0.398695 0.724732
146 1 0.423395 0.398017 0.528411
147 1 0.424294 0.397562 0.269
148 1 0.425197 0.397102 0.553994
149 1 0.425988 0.396467 0.37327
150 1 0.426839 0.395925 0.604487
151 1 0.427694 0.395374 0.856165
152 1 0.428456 0.394734 0.405266
153 1 0.429291 0.394209 0.879798
154 1 0.430192 0.393786 0.393926
155 1 0.431083 0.393301 0.973531
156 1 0.431926 0.392765 0.186774
157 1 0.432769 0.39223 0.118028
158 1 0.433529 0.391591 0.418087
159 1 0.434307 0.390957 0.350864
160 1 0.435201 0.390498 0.180253
161 1 0.435997 0.389897 0.498397
162 1 0.436883 0.389444 0.393621
163 1 0.437621 0.388756 0.872177
164 1 0.438273 0.387962 0.747372
165 1 0.439038 0.387321 0.0558855
166 1 0.439752 0.386624 0.114434
167 1 0.440601 0.386138 0.815466
168 1 0.441509 0.385711 0.992209
169 1 0.442434 0.385351 0.0899
170 1 0.443286 0.384841 1.03638
171 1 0.444048 0.384178 0.0591838
172 1 0.444801 0.383495 0.726027
173 1 0.445615 0.382908 0.549608
174 1 0.446355 0.382256 0.628826
175 1 0.446936 0.381459 0.871763
176 1 0.447619 0.380714 0.8368
177 1 0.448488 0.380232 0.819744
178 1 0.449243 0.379595 0.61507
179 1 0.450018 0.378943 0.183039
180 1 0.450753 0.378251 0.0946386
181 1 0.451511 0.377598 0.877714
182 1 0.452234 0.37692 0.361235
183 1 0.452931 0.376194 0.721121
184 1 0.453697 0.375527 0.896762
185 1 0.454481 0.374904 0.434265
186 1 0.455341 0.374389 0.834983
187 1 0.456196 0.373858 0.215169
188 1 0.456855 0.373106 0.543928
189 1 0.457407 0.37227 0.268357
190 1 0.458194 0.371692 0.83842
191 1 0.458861 0.370935 0.0617644
192 1 0.459585 0.370242 0.278927
193 1 0.460401 0.369686 0.144488
194 1 0.461003 0.368877 0.170585
195 1 0.461551 0.368056 0.357631
196 1 0.462195 0.367305 0.0351898
197 1 0.462827 0.366525 0.744955
198 1 0.46352 0.365799 0.626576
199 1 0.464335 0.365177 0.0475594
200 1 0.465036 0.364439 0.101465
ITEM: TIMESTEP
20000
ITEM: NUMBER OF ATOMS
200
ITEM: BOX BOUNDS pp pp pp
-500 500
-500 500
-0.05 0.05
ITEM: ATOMS id type xs ys zs
1 1 0.350175 0.500272 0.1826
2 1 0.35119 0.500184 0.41503
3 1 0.352188 0.500133 0.151414
4 1 0.353159 0.499919 1.0068
5 1 0.354137 0.500066 0.0892338
6 1 0.355113 0.500352 0.840706
7 1 0.35604 0.50073 0.717603
8 1 0.357037 0.500749 0.528659
9 1 0.358051 0.500747 0.603609
10 1 0.359028 0.500663 0.701402
11 1 0.360029 0.500558 0.284565
12 1 0.361025 0.500456 0.291438
13 1 0.361994 0.50027 0.33025
14 1 0.362991 0.500088 0.49731
15 1 0.364003 0.500066 0.680881
16 1 0.365001 0.499923 0.242519
17 1 0.366016 0.49995 0.910448
18 1 0.367008 0.499823 0.561816
19 1 0.367939 0.499461 0.0832182
20 1 0.3689 0.499246 0.480217
21 1 0.369907 0.4992 0.964192
22 1 0.370846 0.499546 0.662711
23 1 0.371846 0.499594 0.961335
24 1 0.372821 0.499472 0.618344
25 1 0.373787 0.499366 0.610197
26 1 0.37472 0.499061 0.68247
27 1 0.375706 0.498828 0.757666
28 1 0.376585 0.49834 0.19849
29 1 0.3775 0.497898 0.477321
30 1 0.378437 0.497502 0.783514
31 1 0.379285 0.497012 0.90607
32 1 0.380222 0.496681 0.441085
33 1 0.381213 0.496557 0.0694352
34 1 0.382163 0.496261 0.754473
35 1 0.383003 0.495732 0.765436
36 1 0.383805 0.49514 0.541944
37 1 0.38454 0.494446 0.12056
38 1 0.385313 0.49382 0.332639
39 1 0.385964 0.49305 0.627758
40 1 0.386508 0.49222 0.657749
41 1 0.387159 0.491453 0.298323
42 1 0.387846 0.49074 0.695027
43 1 0.388563 0.490037 0.86113
44 1 0.389179 0.489262 0.684165
45 1 0.389854 0.48853 0.289417
46 1 0.390309 0.487614 0.878378
47 1 0.3907 0.486706 0.305603
48 1 0.391024 0.485749 0.412289
49 1 0.391386 0.484791 0.931766
50 1 0.391683 0.483835 0.669507
51 1 0.392013 0.482875 0.809664
52 1 0.39224 0.4819 0.403361
53 1 0.392433 0.48092 0.744746
54 1 0.392983 0.480069 0.885667
55 1 0.393334 0.479112 0.391588
56 1 0.393874 0.478286 0.0250475
57 1 0.394278 0.477384 0.0481173
58 1 0.394935 0.476634 0.636983
59 1 0.395707 0.475979 0.0870718
60 1 0.395847 0.474985 0.448867
61 1 0.395805 0.473976 0.205034
62 1 0.395752 0.472973 0.545626
63 1 0.395909 0.472001 0.329405
64 1 0.396046 0.470999 0.876214
65 1 0.396346 0.470038 0.900007
66 1 0.396533 0.469044 0.427838
67 1 0.396572 0.468039 0.821027
68 1 0.396629 0.467026 0.31958
69 1 0.396543 0.466027 0.639435
70 1 0.396329 0.465056 0.283173
71 1 0.396319 0.464041 0.972497
72 1 0.396192 0.463063 0.672633
73 1 0.396255 0.462069 0.168842
74 1 0.396305 0.461078 0.101097
75 1 0.396542 0.460093 0.22211
76 1 0.396646 0.4591 0.233751
77 1 0.396953 0.458143 0.8193
78 1 0.397307 0.457198 0.182903
79 1 0.397566 0.45625 0.436639
80 1 0.397875 0.455279 0.98607
81 1 0.397788 0.454284 0.647359
82 1 0.397983 0.453283 0.224142
83 1 0.397786 0.45229 0.101485
84 1 0.398003 0.451316 0.495341
85 1 0.398101 0.450353 0.823453
86 1 0.398242 0.449367 0.513946
87 1 0.398609 0.448439 0.457991
88 1 0.398857 0.447462 0.254241
89 1 0.399082 0.446472 0.536067
90 1 0.399134 0.445471 0.702799
91 1 0.39912 0.444475 0.981507
92 1 0.399211 0.443478 0.111112
93 1 0.399041 0.442482 0.611325
94 1 0.39896 0.441475 0.905514
95 1 0.399247 0.440507 0.706807
96 1 0.3994 0.439519 0.674722
97 1 0.39977 0.438607 0.883641
98 1 0.399879 0.437616 0.838144
99 1 0.400001 0.43661 0.178342
100 1 0.400031 0.435589 0.14966
101 1 0.400361 0.434641 0.142835
102 1 0.400435 0.433644 1.06491
103 1 0.400178 0.43266 0.790041
104 1 0.4 0.431676 0.806049
105 1 0.400002 0.430667 0.0866079
106 1 0.400101 0.429669 0.126294
107 1 0.400389 0.428691 0.395379
108 1 0.400907 0.42784 0.903449
109 1 0.401394 0.426984 0.509103
110 1 0.401559 0.426006 0.854652
111 1 0.402024 0.425127 0.233219
112 1 0.402396 0.424203 0.757145
113 1 0.402562 0.423236 0.406687
114 1 0.402913 0.422309 0.255458
115 1 0.403417 0.421427 0.635103
116 1 0.403964 0.420596 0.867521
117 1 0.404366 0.419683 0.919651
118 1 0.404959 0.418891 0.633997
119 1 0.405467 0.418021 0.0188177
120 1 0.405987 0.41714 0.326048
121 1 0.406704 0.416433 0.866992
122 1 0.407269 0.415624 0.604595
123 1 0.407869 0.414822 0.846354
124 1 0.40847 0.414032 0.103309
125 1 0.409047 0.41323 0.707134
126 1 0.409867 0.412668 0.561
127 1 0.410455 0.411873 0.0643469
128 1 0.410957 0.41101 0.287361
129 1 0.411621 0.410258 0.119831
130 1 0.412174 0.40942 0.581753
131 1 0.412804 0.408641 0.38187
132 1 0.413497 0.407936 0.111039
133 1 0.41422 0.407263 0.961244
134 1 0.414954 0.40659 0.482872
135 1 0.415605 0.405836 0.593496
136 1 0.41627 0.405107 0.533516
137 1 0.4171 0.404544 0.303703
138 1 0.417778 0.403796 0.495573
139 1 0.418556 0.403145 0.358411
140 1 0.419229 0.40241 0.134508
141 1 0.419871 0.401649 0.964213
142 1 0.420586 0.40094 0.305757
143 1 0.421293 0.400221 0.238108
144 1 0.422124 0.399656 0.885903
145 1 0.422972 0.399109 0.331513
146 1 0.42368 0.398398 0.502274
147 1 0.424408 0.397697 0.371033
148 1 0.425113 0.39701 0.0140863
149 1 0.425967 0.396491 0.439162
150 1 0.426782 0.395931 0.80511
151 1 0.427723 0.395529 0.455017
152 1 0.428494 0.39487 0.147818
153 1 0.42936 0.394337 0.518953
154 1 0.43022 0.393834 0.888635
155 1 0.43095 0.393139 0.238654
156 1 0.431773 0.392578 0.370733
157 1 0.432679 0.392139 0.934515
158 1 0.433587 0.391712 0.542904
159 1 0.434454 0.391202 0.312043
160 1 0.435323 0.390693 0.73914
161 1 0.435928 0.389917 0.0155074
162 1 0.436619 0.389186 0.92581
163 1 0.43724 0.388379 0.318923
164 1 0.438031 0.387772 0.937891
165 1 0.438919 0.387297 0.524726
166 1 0.439786 0.386798 0.150102
167 1 0.440646 0.386269 0.106585
168 1 0.441473 0.385714 0.745411
169 1 0.442319 0.385218 0.813662
170 1 0.443153 0.384685 1.03594
171 1 0.443944 0.384074 0.311183
172 1 0.444705 0.38341 0.16723
173 1 0.445532 0.382847 0.224705
174 1 0.446389 0.382342 0.993158
175 1 0.447032 0.381576 0.0334716
176 1 0.447647 0.380795 0.406248
177 1 0.448208 0.379964 0.227177
178 1 0.449057 0.379388 0.974867
179 1 0.449877 0.378821 0.125389
180 1 0.450682 0.378172 0.608535
181 1 0.451345 0.377403 0.859642
182 1 0.452129 0.376806 0.321791
183 1 0.453024 0.376359 1.02684
184 1 0.45377 0.375696 0.2765
185 1 0.454356 0.374884 0.568133
186 1 0.454924 0.374057 0.300771
187 1 0.455663 0.373422 0.0615349
188 1 0.456556 0.372978 0.6569
189 1 0.457389 0.372441 0.498743
190 1 0.458008 0.37164 0.755729
191 1 0.458781 0.371006 0.678875
192 1 0.459578 0.370394 -0.0666102
193 1 0.46025 0.369629 0.0417506
194 1 0.460977 0.368977 0.0107465
195 1 0.461675 0.368275 0.502854
196 1 0.462353 0.367534 0.91072
197 1 0.462982 0.366758 0.432543
198 1 0.463711 0.366072 0.462448
199 1 0.464475 0.365425 0.349727
200 1 0.465453 0.365131 0.779821
