ITEM: TIMESTEP
0
ITEM: NUMBER OF ATOMS
50
ITEM: BOX BOUNDS pp pp pp
-500 500
-500 500
-0.05 0.05
ITEM: ATOMS id type xs ys zs
1 1 0.35 0.5 0.5
2 1 0.353963 0.500546 0.5
3 1 0.357906 0.501219 0.5
4 1 0.361893 0.501538 0.5
5 1 0.365891 0.501413 0.5
6 1 0.369839 0.502053 0.5
7 1 0.373816 0.502487 0.5
8 1 0.377816 0.502469 0.5
9 1 0.381814 0.502352 0.5
10 1 0.385809 0.502146 0.5
11 1 0.389792 0.501785 0.5
12 1 0.393731 0.501087 0.5
13 1 0.397607 0.5001 0.5
14 1 0.401561 0.499492 0.5
15 1 0.405553 0.499246 0.5
16 1 0.409553 0.499272 0.5
17 1 0.413531 0.499695 0.5
18 1 0.417435 0.500564 0.5
19 1 0.421435 0.500584 0.5
20 1 0.42537 0.501305 0.5
21 1 0.42929 0.502098 0.5
22 1 0.433288 0.50196 0.5
23 1 0.437159 0.500953 0.5
24 1 0.440816 0.499333 0.5
25 1 0.444451 0.497664 0.5
26 1 0.448234 0.496362 0.5
27 1 0.451897 0.494755 0.5
28 1 0.455691 0.493489 0.5
29 1 0.459508 0.492292 0.5
30 1 0.463137 0.49061 0.5
31 1 0.46691 0.489283 0.5
32 1 0.470548 0.487619 0.5
33 1 0.474289 0.486204 0.5
34 1 0.478176 0.485261 0.5
35 1 0.482125 0.48462 0.5
36 1 0.486087 0.48407 0.5
37 1 0.490028 0.483384 0.5
38 1 0.494021 0.483159 0.5
39 1 0.497973 0.482542 0.5
40 1 0.501971 0.482405 0.5
41 1 0.505971 0.482363 0.5
42 1 0.509962 0.482624 0.5
43 1 0.513959 0.482474 0.5
44 1 0.517954 0.482672 0.5
45 1 0.521952 0.482822 0.5
46 1 0.525951 0.482727 0.5
47 1 0.529947 0.48289 0.5
48 1 0.533934 0.483213 0.5
49 1 0.537884 0.482581 0.5
50 1 0.541859 0.482138 0.5
ITEM: TIMESTEP
10000
ITEM: NUMBER OF ATOMS
50
ITEM: BOX BOUNDS pp pp pp
-500 500
-500 500
-0.05 0.05
ITEM: ATOMS id type xs ys zs
1 1 0.374012 0.503205 0.792661
2 1 0.374809 0.502511 0.331523
3 1 0.375994 0.502077 0.965346
4 1 0.376818 0.501678 0.336026
5 1 0.377902 0.500929 0.719518
6 1 0.378813 0.499565 0.583863
7 1 0.379607 0.499151 0.463877
8 1 0.380616 0.499505 0.883378
9 1 0.382711 0.500136 0.661066
10 1 0.385841 0.500635 0.523592
11 1 0.389529 0.500994 0.454805
12 1 0.393436 0.50135 0.591359
13 1 0.397355 0.501731 0.552957
14 1 0.40126 0.502153 0.298949
15 1 0.405228 0.502189 0.548644
16 1 0.409235 0.501345 0.82489
17 1 0.412975 0.50051 0.606449
18 1 0.416874 0.499568 0.729382
19 1 0.420798 0.498637 0.671846
20 1 0.424694 0.497529 0.693042
21 1 0.428593 0.496632 0.745895
22 1 0.432456 0.495567 0.629355
23 1 0.436339 0.494871 0.504188
24 1 0.440115 0.494306 0.558018
25 1 0.443981 0.493735 0.472687
26 1 0.447832 0.493241 0.657315
27 1 0.451795 0.493063 0.65511
28 1 0.45579 0.493214 0.732869
29 1 0.459801 0.492999 0.921303
30 1 0.463716 0.492337 0.694663
31 1 0.467561 0.491406 0.593187
32 1 0.471413 0.490557 0.674294
33 1 0.475219 0.489486 0.409005
34 1 0.479072 0.488823 0.339351
35 1 0.483036 0.488274 0.567259
36 1 0.486894 0.487469 0.461613
37 1 0.490796 0.486901 0.635474
38 1 0.494656 0.486169 0.00430891
39 1 0.498486 0.485503 0.863797
40 1 0.502252 0.48465 0.0948794
41 1 0.505943 0.484231 0.59196
42 1 0.5091 0.483648 0.0855198
43 1 0.511226 0.483111 0.115436
44 1 0.512219 0.482803 0.136552
45 1 0.512779 0.482034 0.0356492
46 1 0.514114 0.481992 0.34754
47 1 0.515227 0.482153 0.170971
48 1 0.515942 0.482043 0.448263
49 1 0.5166 0.483094 0.17801
50 1 0.517325 0.484057 0.245637
