ITEM: TIMESTEP
0
ITEM: NUMBER OF ATOMS
200
ITEM: BOX BOUNDS pp pp pp
-500 500
-500 500
-0.05 0.05
ITEM: ATOMS id type xs ys zs
1 1 0.35 0.5 0.5
2 1 0.350997 0.500077 0.5
3 1 0.351992 0.500175 0.5
4 1 0.352983 0.500312 0.5
5 1 0.353972 0.500455 0.5
6 1 0.354972 0.500431 0.5
7 1 0.355972 0.500433 0.5
8 1 0.356971 0.500386 0.5
9 1 0.357971 0.500376 0.5
10 1 0.35897 0.500331 0.5
11 1 0.359969 0.500375 0.5
12 1 0.360969 0.500357 0.5
13 1 0.361964 0.50026 0.5
14 1 0.362937 0.50003 0.5
15 1 0.363927 0.499886 0.5
16 1 0.364926 0.499841 0.5
17 1 0.36592 0.499732 0.5
18 1 0.36691 0.499588 0.5
19 1 0.367907 0.499524 0.5
20 1 0.368897 0.499378 0.5
21 1 0.369885 0.499223 0.5
22 1 0.370878 0.499106 0.5
23 1 0.371863 0.498937 0.5
24 1 0.372855 0.498808 0.5
25 1 0.373855 0.498791 0.5
26 1 0.374843 0.498946 0.5
27 1 0.375831 0.499102 0.5
28 1 0.376831 0.499089 0.5
29 1 0.377825 0.498983 0.5
30 1 0.378788 0.498715 0.5
31 1 0.379691 0.498285 0.5
32 1 0.380536 0.49775 0.5
33 1 0.381372 0.497201 0.5
34 1 0.382179 0.49661 0.5
35 1 0.382912 0.49593 0.5
36 1 0.383613 0.495217 0.5
37 1 0.384382 0.494578 0.5
38 1 0.385202 0.494006 0.5
39 1 0.385904 0.493294 0.5
40 1 0.3867 0.492688 0.5
41 1 0.387373 0.491949 0.5
42 1 0.387993 0.491164 0.5
43 1 0.388541 0.490328 0.5
44 1 0.388984 0.489431 0.5
45 1 0.389449 0.488546 0.5
46 1 0.38993 0.487669 0.5
47 1 0.390356 0.486764 0.5
48 1 0.390683 0.485819 0.5
49 1 0.391056 0.484891 0.5
50 1 0.391583 0.484041 0.5
51 1 0.392012 0.483138 0.5
52 1 0.392488 0.482259 0.5
53 1 0.392943 0.481368 0.5
54 1 0.393289 0.48043 0.5
55 1 0.393733 0.479534 0.5
56 1 0.394189 0.478644 0.5
57 1 0.394573 0.477721 0.5
58 1 0.394974 0.476805 0.5
59 1 0.395329 0.47587 0.5
60 1 0.395689 0.474937 0.5
61 1 0.395955 0.473973 0.5
62 1 0.396211 0.473006 0.5
63 1 0.396371 0.472019 0.5
64 1 0.396434 0.471021 0.5
65 1 0.396507 0.470024 0.5
66 1 0.396568 0.469026 0.5
67 1 0.396502 0.468028 0.5
68 1 0.396428 0.46703 0.5
69 1 0.396333 0.466035 0.5
70 1 0.396198 0.465044 0.5
71 1 0.396098 0.464049 0.5
72 1 0.396071 0.46305 0.5
73 1 0.396127 0.462051 0.5
74 1 0.396268 0.461061 0.5
75 1 0.396696 0.460157 0.5
76 1 0.397091 0.459239 0.5
77 1 0.397347 0.458272 0.5
78 1 0.397471 0.45728 0.5
79 1 0.397527 0.456281 0.5
80 1 0.397689 0.455294 0.5
81 1 0.397791 0.4543 0.5
82 1 0.397921 0.453308 0.5
83 1 0.398067 0.452319 0.5
84 1 0.39811 0.45132 0.5
85 1 0.398252 0.45033 0.5
86 1 0.398188 0.449332 0.5
87 1 0.398139 0.448333 0.5
88 1 0.398149 0.447333 0.5
89 1 0.398133 0.446333 0.5
90 1 0.398252 0.44534 0.5
91 1 0.398362 0.444346 0.5
92 1 0.398501 0.443356 0.5
93 1 0.398722 0.442381 0.5
94 1 0.399165 0.441484 0.5
95 1 0.399419 0.440517 0.5
96 1 0.399619 0.439537 0.5
97 1 0.39975 0.438546 0.5
98 1 0.399851 0.437551 0.5
99 1 0.399975 0.436559 0.5
100 1 0.400146 0.435573 0.5
101 1 0.400326 0.43459 0.5
102 1 0.400452 0.433598 0.5
103 1 0.40054 0.432602 0.5
104 1 0.400556 0.431602 0.5
105 1 0.4007 0.430612 0.5
106 1 0.400846 0.429623 0.5
107 1 0.400888 0.428624 0.5
108 1 0.400945 0.427626 0.5
109 1 0.401033 0.426629 0.5
110 1 0.401169 0.425639 0.5
111 1 0.401551 0.424715 0.5
112 1 0.402061 0.423854 0.5
113 1 0.402409 0.422917 0.5
114 1 0.402627 0.421941 0.5
115 1 0.402875 0.420972 0.5
116 1 0.403374 0.420106 0.5
117 1 0.403917 0.419266 0.5
118 1 0.404346 0.418362 0.5
119 1 0.404913 0.417539 0.5
120 1 0.4056 0.416812 0.5
121 1 0.406382 0.416189 0.5
122 1 0.407109 0.415502 0.5
123 1 0.407758 0.414741 0.5
124 1 0.408364 0.413946 0.5
125 1 0.408937 0.413126 0.5
126 1 0.409527 0.412319 0.5
127 1 0.410125 0.411518 0.5
128 1 0.410759 0.410745 0.5
129 1 0.411452 0.410023 0.5
130 1 0.412219 0.409382 0.5
131 1 0.412975 0.408727 0.5
132 1 0.413808 0.408174 0.5
133 1 0.414557 0.407511 0.5
134 1 0.415346 0.406896 0.5
135 1 0.4161 0.40624 0.5
136 1 0.416765 0.405493 0.5
137 1 0.41751 0.404826 0.5
138 1 0.418098 0.404017 0.5
139 1 0.41868 0.403204 0.5
140 1 0.419339 0.402452 0.5
141 1 0.419931 0.401645 0.5
142 1 0.420474 0.400806 0.5
143 1 0.421098 0.400025 0.5
144 1 0.421805 0.399318 0.5
145 1 0.422609 0.398723 0.5
146 1 0.423389 0.398096 0.5
147 1 0.424197 0.397508 0.5
148 1 0.425035 0.396962 0.5
149 1 0.425853 0.396386 0.5
150 1 0.426721 0.395891 0.5
151 1 0.427578 0.395375 0.5
152 1 0.428418 0.394833 0.5
153 1 0.429273 0.394313 0.5
154 1 0.430156 0.393844 0.5
155 1 0.431009 0.393323 0.5
156 1 0.431842 0.392769 0.5
157 1 0.432691 0.392241 0.5
158 1 0.43344 0.391578 0.5
159 1 0.434191 0.390918 0.5
160 1 0.434991 0.390317 0.5
161 1 0.43589 0.389881 0.5
162 1 0.436724 0.389328 0.5
163 1 0.437567 0.388791 0.5
164 1 0.438367 0.38819 0.5
165 1 0.43917 0.387595 0.5
166 1 0.439944 0.386961 0.5
167 1 0.440735 0.38635 0.5
168 1 0.441483 0.385686 0.5
169 1 0.442308 0.38512 0.5
170 1 0.4432 0.38467 0.5
171 1 0.444086 0.384206 0.5
172 1 0.444842 0.383551 0.5
173 1 0.4455 0.382798 0.5
174 1 0.446252 0.38214 0.5
175 1 0.447034 0.381515 0.5
176 1 0.447807 0.380881 0.5
177 1 0.448572 0.380237 0.5
178 1 0.449325 0.379579 0.5
179 1 0.450115 0.378966 0.5
180 1 0.450889 0.378333 0.5
181 1 0.451608 0.377639 0.5
182 1 0.452212 0.376841 0.5
183 1 0.45292 0.376135 0.5
184 1 0.453755 0.375584 0.5
185 1 0.454596 0.375043 0.5
186 1 0.455417 0.374473 0.5
187 1 0.456247 0.373914 0.5
188 1 0.457019 0.373279 0.5
189 1 0.457685 0.372534 0.5
190 1 0.458357 0.371792 0.5
191 1 0.458981 0.371011 0.5
192 1 0.459703 0.370319 0.5
193 1 0.460342 0.36955 0.5
194 1 0.460996 0.368793 0.5
195 1 0.46163 0.36802 0.5
196 1 0.462257 0.367241 0.5
197 1 0.462846 0.366433 0.5
198 1 0.463444 0.365632 0.5
199 1 0.464055 0.36484 0.5
200 1 0.464579 0.363988 0.5
ITEM: TIMESTEP
10000
ITEM: NUMBER OF ATOMS
200
ITEM: BOX BOUNDS pp pp pp
-500 500
-500 500
-0.05 0.05
ITEM: ATOMS id type xs ys zs
1 1 0.350137 0.500292 0.263085
2 1 0.351056 0.499913 0.818657
3 1 0.352061 0.49998 0.514072
4 1 0.353014 0.500229 0.965419
5 1 0.353966 0.500457 0.632294
6 1 0.354957 0.500331 0.204367
7 1 0.355935 0.500409 0.407768
8 1 0.356935 0.500525 0.526934
9 1 0.357926 0.500635 0.629425
10 1 0.358938 0.50068 0.910714
11 1 0.359934 0.500529 0.448743
12 1 0.36092 0.500281 0.441826
13 1 0.361908 0.500198 0.359211
14 1 0.362899 0.50021 0.216743
15 1 0.363889 0.50013 0.510581
16 1 0.364876 0.49997 0.482751
17 1 0.365852 0.49985 -0.00184667
18 1 0.366824 0.499623 0.56448
19 1 0.367815 0.499464 0.332592
20 1 0.368807 0.499297 0.747979
21 1 0.369799 0.49915 0.725533
22 1 0.370797 0.49904 0.361608
23 1 0.371809 0.499202 0.359916
24 1 0.372793 0.499341 0.48125
25 1 0.373795 0.499285 0.264405
26 1 0.374789 0.499153 0.0309685
27 1 0.375785 0.499068 0.113452
28 1 0.376766 0.498811 0.392971
29 1 0.37775 0.498547 0.750641
30 1 0.378687 0.498206 0.648693
31 1 0.379655 0.497905 0.27109
32 1 0.380587 0.497583 0.386388
33 1 0.381441 0.497039 0.615817
34 1 0.382188 0.496389 0.167986
35 1 0.383115 0.495981 0.233811
36 1 0.383873 0.495337 0.396841
37 1 0.384514 0.494561 0.350805
38 1 0.385251 0.493858 0.518739
39 1 0.385887 0.493088 0.497672
40 1 0.386644 0.492431 0.478333
41 1 0.387379 0.491733 0.591749
42 1 0.388006 0.490958 0.456617
43 1 0.388638 0.490172 0.578208
44 1 0.389197 0.489336 0.437405
45 1 0.38972 0.488487 0.905021
46 1 0.390135 0.487586 0.751854
47 1 0.390563 0.486669 0.768547
48 1 0.390916 0.485725 0.388243
49 1 0.39129 0.48479 0.429598
50 1 0.391533 0.48381 0.426333
51 1 0.391985 0.482931 0.733294
52 1 0.392455 0.482046 0.585764
53 1 0.392738 0.481112 0.933536
54 1 0.39315 0.480168 0.836569
55 1 0.393329 0.479191 -0.00656425
56 1 0.393854 0.478322 0.652706
57 1 0.394574 0.477627 0.837694
58 1 0.395123 0.476794 0.95223
59 1 0.395401 0.475841 0.344686
60 1 0.395735 0.474896 0.894098
61 1 0.396032 0.473941 0.552149
62 1 0.395887 0.472941 1.04074
63 1 0.39612 0.47195 0.681044
64 1 0.396284 0.470983 0.966498
65 1 0.396373 0.469997 0.651212
66 1 0.396465 0.468995 0.333953
67 1 0.396612 0.467996 0.900015
68 1 0.396504 0.467006 0.4829
69 1 0.396293 0.466051 0.172815
70 1 0.396277 0.465053 0.830145
71 1 0.396213 0.464083 0.369335
72 1 0.396118 0.463075 0.324074
73 1 0.396226 0.46209 0.530901
74 1 0.396291 0.461082 0.699365
75 1 0.396593 0.460143 0.284392
76 1 0.396813 0.459171 0.90193
77 1 0.397191 0.458274 0.347466
78 1 0.397503 0.457333 0.716782
79 1 0.397589 0.456342 0.666012
80 1 0.397845 0.45537 0.379021
81 1 0.397773 0.454367 0.834601
82 1 0.39784 0.453361 0.527071
83 1 0.397881 0.452356 0.562848
84 1 0.397988 0.451382 0.572981
85 1 0.398055 0.450384 0.736164
86 1 0.398306 0.449397 0.990811
87 1 0.398462 0.448404 0.437863
88 1 0.398361 0.447403 0.62412
89 1 0.398632 0.446437 0.806997
90 1 0.398704 0.445456 0.85801
91 1 0.398729 0.444463 0.817609
92 1 0.398935 0.44349 0.966972
93 1 0.399072 0.442507 0.582396
94 1 0.399142 0.441495 0.25446
95 1 0.399126 0.4405 0.880783
96 1 0.399298 0.439508 0.887778
97 1 0.399515 0.43853 1.0021
98 1 0.39976 0.437552 0.699325
99 1 0.40028 0.436663 0.264834
100 1 0.400385 0.435661 0.400059
101 1 0.400447 0.434662 0.690024
102 1 0.400323 0.433666 0.175069
103 1 0.400359 0.43267 0.709432
104 1 0.400434 0.431671 0.713023
105 1 0.400252 0.430695 0.466427
106 1 0.400289 0.429687 0.313599
107 1 0.400436 0.428686 0.20568
108 1 0.400523 0.427704 0.571243
109 1 0.400948 0.426787 0.0872928
110 1 0.40139 0.425894 0.854693
111 1 0.401806 0.424975 0.445602
112 1 0.402148 0.424031 0.260685
113 1 0.402543 0.423109 0.696712
114 1 0.402983 0.422209 0.548019
115 1 0.403408 0.421284 0.404707
116 1 0.403566 0.420292 0.033195
117 1 0.403936 0.419357 0.385775
118 1 0.404435 0.418488 0.569924
119 1 0.405124 0.417773 0.634874
120 1 0.405778 0.416999 0.211072
121 1 0.40648 0.416292 0.973106
122 1 0.407098 0.415517 0.139403
123 1 0.407746 0.414765 0.624029
124 1 0.408502 0.414104 -0.103208
125 1 0.409151 0.413334 -0.0124528
126 1 0.409632 0.412452 0.106472
127 1 0.410121 0.411587 0.344808
128 1 0.410719 0.410771 0.228761
129 1 0.411297 0.40995 0.178481
130 1 0.411928 0.409178 0.0167197
131 1 0.412773 0.408615 0.0251415
132 1 0.413623 0.408036 0.54623
133 1 0.414387 0.407374 0.842638
134 1 0.415215 0.406818 0.290786
135 1 0.416012 0.406196 0.115413
136 1 0.416633 0.405399 0.880979
137 1 0.417342 0.404679 1.03754
138 1 0.417987 0.403914 0.610316
139 1 0.418586 0.403106 0.732777
140 1 0.419201 0.402296 0.608971
141 1 0.41983 0.401496 0.935957
142 1 0.420583 0.400871 0.351306
143 1 0.421263 0.400134 0.931757
144 1 0.421911 0.399385 0.942327
145 1 0.422637 0.398695 0.724732
146 1 0.423395 0.398017 0.528411
147 1 0.424294 0.397562 0.269
148 1 0.425197 0.397102 0.553994
149 1 0.425988 0.396467 0.37327
150 1 0.426839 0.395925 0.604487
151 1 0.427694 0.395374 0.856165
152 1 0.428456 0.394734 0.405266
153 1 0.429291 0.394209 0.879798
154 1 0.430192 0.393786 0.393926
155 1 0.431083 0.393301 0.973531
156 1 0.431926 0.392765 0.186774
157 1 0.432769 0.39223 0.118028
158 1 0.433529 0.391591 0.418087
159 1 0.434307 0.390957 0.350864
160 1 0.435201 0.390498 0.180253
161 1 0.435997 0.389897 0.498397
162 1 0.436883 0.389444 0.393621
163 1 0.437621 0.388756 0.872177
164 1 0.438273 0.387962 0.747372
165 1 0.439038 0.387321 0.0558855
166 1 0.439752 0.386624 0.114434
167 1 0.440601 0.386138 0.815466
168 1 0.441509 0.385711 0.992209
169 1 0.442434 0.385351 0.0899
170 1 0.443286 0.384841 1.03638
171 1 0.444048 0.384178 0.0591838
172 1 0.444801 0.383495 0.726027
173 1 0.445615 0.382908 0.549608
174 1 0.446355 0.382256 0.628826
175 1 0.446936 0.381459 0.871763
176 1 0.447619 0.380714 0.8368
177 1 0.448488 0.380232 0.819744
178 1 0.449243 0.379595 0.61507
179 1 0.450018 0.378943 0.183039
180 1 0.450753 0.378251 0.0946386
181 1 0.451511 0.377598 0.877714
182 1 0.452234 0.37692 0.361235
183 1 0.452931 0.376194 0.721121
184 1 0.453697 0.375527 0.896762
185 1 0.454481 0.374904 0.434265
186 1 0.455341 0.374389 0.834983
187 1 0.456196 0.373858 0.215169
188 1 0.456855 0.373106 0.543928
189 1 0.457407 0.37227 0.268357
190 1 0.458194 0.371692 0.83842
191 1 0.458861 0.370935 0.0617644
192 1 0.459585 0.370242 0.278927
193 1 0.460401 0.369686 0.144488
194 1 0.461003 0.368877 0.170585
195 1 0.461551 0.368056 0.357631
196 1 0.462195 0.367305 0.0351898
197 1 0.462827 0.366525 0.744955
198 1 0.46352 0.365799 0.626576
199 1 0.464335 0.365177 0.0475594
200 1 0.465036 0.364439 0.101465
ITEM: TIMESTEP
20000
ITEM: NUMBER OF ATOMS
200
ITEM: BOX BOUNDS pp pp pp
-500 500
-500 500
-0.05 0.05
ITEM: ATOMS id type xs ys zs
1 1 0.350175 0.500272 0.1826
2 1 0.35119 0.500184 0.41503
3 1 0.352188 0.500133 0.151414
4 1 0.353159 0.499919 1.0068
5 1 0.354137 0.500066 0.0892338
6 1 0.355113 0.500352 0.840706
7 1 0.35604 0.50073 0.717603
8 1 0.357037 0.500749 0.528659
9 1 0.358051 0.500747 0.603609
10 1 0.359028 0.500663 0.701402
11 1 0.360029 0.500558 0.284565
12 1 0.361025 0.500456 0.291438
13 1 0.361994 0.50027 0.33025
14 1 0.362991 0.500088 0.49731
15 1 0.364003 0.500066 0.680881
16 1 0.365001 0.499923 0.242519
17 1 0.366016 0.49995 0.910448
18 1 0.367008 0.499823 0.561816
19 1 0.367939 0.499461 0.0832182
20 1 0.3689 0.499246 0.480217
21 1 0.369907 0.4992 0.964192
22 1 0.370846 0.499546 0.662711
23 1 0.371846 0.499594 0.961335
24 1 0.372821 0.499472 0.618344
25 1 0.373787 0.499366 0.610197
26 1 0.37472 0.499061 0.68247
27 1 0.375706 0.498828 0.757666
28 1 0.376585 0.49834 0.19849
29 1 0.3775 0.497898 0.477321
30 1 0.378437 0.497502 0.783514
31 1 0.379285 0.497012 0.90607
32 1 0.380222 0.496681 0.441085
33 1 0.381213 0.496557 0.0694352
34 1 0.382163 0.496261 0.754473
35 1 0.383003 0.495732 0.765436
36 1 0.383805 0.49514 0.541944
37 1 0.38454 0.494446 0.12056
38 1 0.385313 0.49382 0.332639
39 1 0.385964 0.49305 0.627758
40 1 0.386508 0.49222 0.657749
41 1 0.387159 0.491453 0.298323
42 1 0.387846 0.49074 0.695027
43 1 0.388563 0.490037 0.86113
44 1 0.389179 0.489262 0.684165
45 1 0.389854 0.48853 0.289417
46 1 0.390309 0.487614 0.878378
47 1 0.3907 0.486706 0.305603
48 1 0.391024 0.485749 0.412289
49 1 0.391386 0.484791 0.931766
50 1 0.391683 0.483835 0.669507
51 1 0.392013 0.482875 0.809664
52 1 0.39224 0.4819 0.403361
53 1 0.392433 0.48092 0.744746
54 1 0.392983 0.480069 0.885667
55 1 0.393334 0.479112 0.391588
56 1 0.393874 0.478286 0.0250475
57 1 0.394278 0.477384 0.0481173
58 1 0.394935 0.476634 0.636983
59 1 0.395707 0.475979 0.0870718
60 1 0.395847 0.474985 0.448867
61 1 0.395805 0.473976 0.205034
62 1 0.395752 0.472973 0.545626
63 1 0.395909 0.472001 0.329405
64 1 0.396046 0.470999 0.876214
65 1 0.396346 0.470038 0.900007
66 1 0.396533 0.469044 0.427838
67 1 0.396572 0.468039 0.821027
68 1 0.396629 0.467026 0.31958
69 1 0.396543 0.466027 0.639435
70 1 0.396329 0.465056 0.283173
71 1 0.396319 0.464041 0.972497
72 1 0.396192 0.463063 0.672633
73 1 0.396255 0.462069 0.168842
74 1 0.396305 0.461078 0.101097
75 1 0.396542 0.460093 0.22211
76 1 0.396646 0.4591 0.233751
77 1 0.396953 0.458143 0.8193
78 1 0.397307 0.457198 0.182903
79 1 0.397566 0.45625 0.436639
80 1 0.397875 0.455279 0.98607
81 1 0.397788 0.454284 0.647359
82 1 0.397983 0.453283 0.224142
83 1 0.397786 0.45229 0.101485
84 1 0.398003 0.451316 0.495341
85 1 0.398101 0.450353 0.823453
86 1 0.398242 0.449367 0.513946
87 1 0.398609 0.448439 0.457991
88 1 0.398857 0.447462 0.254241
89 1 0.399082 0.446472 0.536067
90 1 0.399134 0.445471 0.702799
91 1 0.39912 0.444475 0.981507
92 1 0.399211 0.443478 0.111112
93 1 0.399041 0.442482 0.611325
94 1 0.39896 0.441475 0.905514
95 1 0.399247 0.440507 0.706807
96 1 0.3994 0.439519 0.674722
97 1 0.39977 0.438607 0.883641
98 1 0.399879 0.437616 0.838144
99 1 0.400001 0.43661 0.178342
100 1 0.400031 0.435589 0.14966
101 1 0.400361 0.434641 0.142835
102 1 0.400435 0.433644 1.06491
103 1 0.400178 0.43266 0.790041
104 1 0.4 0.431676 0.806049
105 1 0.400002 0.430667 0.0866079
106 1 0.400101 0.429669 0.126294
107 1 0.400389 0.428691 0.395379
108 1 0.400907 0.42784 0.903449
109 1 0.401394 0.426984 0.509103
110 1 0.401559 0.426006 0.854652
111 1 0.402024 0.425127 0.233219
112 1 0.402396 0.424203 0.757145
113 1 0.402562 0.423236 0.406687
114 1 0.402913 0.422309 0.255458
115 1 0.403417 0.421427 0.635103
116 1 0.403964 0.420596 0.867521
117 1 0.404366 0.419683 0.919651
118 1 0.404959 0.418891 0.633997
119 1 0.405467 0.418021 0.0188177
120 1 0.405987 0.41714 0.326048
121 1 0.406704 0.416433 0.866992
122 1 0.407269 0.415624 0.604595
123 1 0.407869 0.414822 0.846354
124 1 0.40847 0.414032 0.103309
125 1 0.409047 0.41323 0.707134
126 1 0.409867 0.412668 0.561
127 1 0.410455 0.411873 0.0643469
128 1 0.410957 0.41101 0.287361
129 1 0.411621 0.410258 0.119831
130 1 0.412174 0.40942 0.581753
131 1 0.412804 0.408641 0.38187
132 1 0.413497 0.407936 0.111039
133 1 0.41422 0.407263 0.961244
134 1 0.414954 0.40659 0.482872
135 1 0.415605 0.405836 0.593496
136 1 0.41627 0.405107 0.533516
137 1 0.4171 0.404544 0.303703
138 1 0.417778 0.403796 0.495573
139 1 0.418556 0.403145 0.358411
140 1 0.419229 0.40241 0.134508
141 1 0.419871 0.401649 0.964213
142 1 0.420586 0.40094 0.305757
143 1 0.421293 0.400221 0.238108
144 1 0.422124 0.399656 0.885903
145 1 0.422972 0.399109 0.331513
146 1 0.42368 0.398398 0.502274
147 1 0.424408 0.397697 0.371033
148 1 0.425113 0.39701 0.0140863
149 1 0.425967 0.396491 0.439162
150 1 0.426782 0.395931 0.80511
151 1 0.427723 0.395529 0.455017
152 1 0.428494 0.39487 0.147818
153 1 0.42936 0.394337 0.518953
154 1 0.43022 0.393834 0.888635
155 1 0.43095 0.393139 0.238654
156 1 0.431773 0.392578 0.370733
157 1 0.432679 0.392139 0.934515
158 1 0.433587 0.391712 0.542904
159 1 0.434454 0.391202 0.312043
160 1 0.435323 0.390693 0.73914
161 1 0.435928 0.389917 0.0155074
162 1 0.436619 0.389186 0.92581
163 1 0.43724 0.388379 0.318923
164 1 0.438031 0.387772 0.937891
165 1 0.438919 0.387297 0.524726
166 1 0.439786 0.386798 0.150102
167 1 0.440646 0.386269 0.106585
168 1 0.441473 0.385714 0.745411
169 1 0.442319 0.385218 0.813662
170 1 0.443153 0.384685 1.03594
171 1 0.443944 0.384074 0.311183
172 1 0.444705 0.38341 0.16723
173 1 0.445532 0.382847 0.224705
174 1 0.446389 0.382342 0.993158
175 1 0.447032 0.381576 0.0334716
176 1 0.447647 0.380795 0.406248
177 1 0.448208 0.379964 0.227177
178 1 0.449057 0.379388 0.974867
179 1 0.449877 0.378821 0.125389
180 1 0.450682 0.378172 0.608535
181 1 0.451345 0.377403 0.859642
182 1 0.452129 0.376806 0.321791
183 1 0.453024 0.376359 1.02684
184 1 0.45377 0.375696 0.2765
185 1 0.454356 0.374884 0.568133
186 1 0.454924 0.374057 0.300771
187 1 0.455663 0.373422 0.0615349
188 1 0.456556 0.372978 0.6569
189 1 0.457389 0.372441 0.498743
190 1 0.458008 0.37164 0.755729
191 1 0.458781 0.371006 0.678875
192 1 0.459578 0.370394 -0.0666102
193 1 0.46025 0.369629 0.0417506
194 1 0.460977 0.368977 0.0107465
195 1 0.461675 0.368275 0.502854
196 1 0.462353 0.367534 0.91072
197 1 0.462982 0.366758 0.432543
198 1 0.463711 0.366072 0.462448
199 1 0.464475 0.365425 0.349727
200 1 0.465453 0.365131 0.779821
ITEM: TIMESTEP
30000
ITEM: NUMBER OF ATOMS
200
ITEM: BOX BOUNDS pp pp pp
-500 500
-500 500
-0.05 0.05
ITEM: ATOMS id type xs ys zs
1 1 0.350484 0.500294 0.314766
2 1 0.351482 0.500277 0.702783
3 1 0.352488 0.50016 0.296007
4 1 0.353469 0.500122 0.436557
5 1 0.35444 0.499959 0.70041
6 1 0.355361 0.500287 0.0841993
7 1 0.356268 0.500716 0.876626
8 1 0.357251 0.500875 0.944643
9 1 0.358189 0.500518 0.234159
10 1 0.359186 0.50063 -0.145066
11 1 0.360165 0.500715 0.625302
12 1 0.361073 0.500357 0.370982
13 1 0.362061 0.500161 0.00791776
14 1 0.363024 0.500264 0.217323
15 1 0.36402 0.500186 0.435092
16 1 0.365015 0.500156 0.645072
17 1 0.365992 0.499897 0.741913
18 1 0.36694 0.49964 0.798299
19 1 0.367931 0.499427 0.233507
20 1 0.368921 0.49954 0.106355
21 1 0.369905 0.499626 0.669876
22 1 0.370915 0.499659 0.0470726
23 1 0.371894 0.499557 0.552822
24 1 0.372895 0.499609 0.222333
25 1 0.373866 0.499343 0.656714
26 1 0.374757 0.498877 0.804775
27 1 0.375537 0.498254 0.404602
28 1 0.376455 0.497903 0.971207
29 1 0.377315 0.497435 0.134122
30 1 0.378193 0.496996 0.420466
31 1 0.379102 0.496581 0.623772
32 1 0.379995 0.496081 0.312984
33 1 0.380972 0.495895 0.030521
34 1 0.381962 0.495724 0.332308
35 1 0.382934 0.495424 0.989938
36 1 0.383843 0.495001 0.552826
37 1 0.384585 0.494364 0.640132
38 1 0.385218 0.493573 0.188332
39 1 0.385855 0.492822 0.64302
40 1 0.386499 0.492042 0.77362
41 1 0.3872 0.491334 0.0472694
42 1 0.387804 0.49055 0.0849288
43 1 0.388612 0.48996 0.536532
44 1 0.389256 0.489176 0.342062
45 1 0.38983 0.488345 0.0806079
46 1 0.390342 0.487502 0.830355
47 1 0.390958 0.486677 0.791536
48 1 0.39136 0.485765 0.324739
49 1 0.391665 0.484818 0.788822
50 1 0.391853 0.483846 0.679962
51 1 0.391792 0.482855 0.28244
52 1 0.392148 0.481961 0.716173
53 1 0.392438 0.48101 0.544267
54 1 0.392789 0.480089 -0.0121086
55 1 0.393175 0.479165 0.364752
56 1 0.393741 0.478347 0.417207
57 1 0.394447 0.477597 0.699618
58 1 0.394949 0.476745 0.591796
59 1 0.39505 0.475751 1.11883
60 1 0.395551 0.474879 0.455762
61 1 0.395627 0.473882 0.122583
62 1 0.395774 0.472889 0.575124
63 1 0.395718 0.471877 0.381781
64 1 0.39589 0.470896 0.096243
65 1 0.396238 0.469956 0.831979
66 1 0.396445 0.468982 0.748457
67 1 0.396457 0.467969 0.639106
68 1 0.396368 0.46697 0.53044
69 1 0.396363 0.465959 0.50882
70 1 0.396393 0.464971 1.13421
71 1 0.396554 0.463991 0.404418
72 1 0.396535 0.462983 0.309222
73 1 0.396504 0.461989 0.869895
74 1 0.396435 0.46099 0.405963
75 1 0.396679 0.459986 0.560022
76 1 0.39686 0.45902 0.924532
77 1 0.396923 0.458032 1.17361
78 1 0.397002 0.457035 0.25376
79 1 0.397166 0.456029 0.477703
80 1 0.397595 0.45514 0.758598
81 1 0.397791 0.454139 0.910173
82 1 0.398125 0.4532 0.84625
83 1 0.398098 0.452206 0.223804
84 1 0.398212 0.451219 0.30491
85 1 0.398302 0.450231 0.45864
86 1 0.398426 0.449242 0.338888
87 1 0.398784 0.448311 0.438298
88 1 0.399062 0.447368 1.17091
89 1 0.399202 0.446391 0.815506
90 1 0.399549 0.445453 0.0653266
91 1 0.399333 0.444489 0.837892
92 1 0.399092 0.443516 0.630744
93 1 0.399081 0.442509 0.60727
94 1 0.399249 0.44152 0.961413
95 1 0.399566 0.440549 0.633551
96 1 0.399566 0.439559 0.691587
97 1 0.399717 0.438569 0.510232
98 1 0.399635 0.437571 0.385132
99 1 0.399911 0.436607 0.451799
100 1 0.399924 0.435611 0.453437
101 1 0.399972 0.434594 0.66395
102 1 0.399785 0.433612 0.303217
103 1 0.399945 0.432619 0.506865
104 1 0.399948 0.431607 0.844181
105 1 0.3999 0.430637 -0.115073
106 1 0.400203 0.429709 0.201306
107 1 0.400809 0.42893 0.491164
108 1 0.401213 0.428021 0.0472799
109 1 0.401566 0.427084 0.560979
110 1 0.402036 0.426194 0.331274
111 1 0.402285 0.425236 0.483916
112 1 0.402491 0.424273 0.285604
113 1 0.402857 0.423337 0.768374
114 1 0.403175 0.422385 0.627507
115 1 0.403434 0.421429 0.769391
116 1 0.404093 0.420676 0.661594
117 1 0.40483 0.420024 0.234612
118 1 0.405545 0.419313 0.642925
119 1 0.405891 0.418377 0.524646
120 1 0.406379 0.417493 0.239362
121 1 0.406839 0.416576 0.467448
122 1 0.407257 0.415644 0.200391
123 1 0.407927 0.414882 0.393875
124 1 0.408721 0.414242 0.536722
125 1 0.409159 0.413337 0.755439
126 1 0.409846 0.412598 0.937746
127 1 0.41057 0.411901 0.304247
128 1 0.411309 0.411258 0.0679089
129 1 0.411969 0.410498 0.416988
130 1 0.412476 0.409665 0.240301
131 1 0.412976 0.408784 0.5959
132 1 0.413424 0.407901 0.251068
133 1 0.413939 0.407049 0.887017
134 1 0.414596 0.406261 0.783604
135 1 0.415343 0.405589 0.242044
136 1 0.416083 0.404907 0.655634
137 1 0.416912 0.404338 0.502537
138 1 0.417679 0.403694 0.277738
139 1 0.418438 0.403035 0.712552
140 1 0.419094 0.40228 0.20958
141 1 0.419948 0.401731 0.388721
142 1 0.420764 0.401144 0.087161
143 1 0.421529 0.400513 0.965402
144 1 0.422328 0.399913 0.280052
145 1 0.423006 0.399166 0.0467396
146 1 0.423848 0.398607 0.0391217
147 1 0.424667 0.398018 0.614542
148 1 0.42532 0.397274 0.0913669
149 1 0.425968 0.396512 0.155358
150 1 0.426751 0.39589 0.418332
151 1 0.427645 0.395464 0.146324
152 1 0.428578 0.395086 0.583153
153 1 0.429334 0.394438 0.534029
154 1 0.430134 0.393833 0.0524713
155 1 0.43085 0.39313 0.998907
156 1 0.431724 0.392677 0.745456
157 1 0.4326 0.392192 -0.161211
158 1 0.433508 0.391765 0.2189
159 1 0.434335 0.39118 0.239282
160 1 0.435117 0.390544 0.413585
161 1 0.435745 0.389786 0.227933
162 1 0.436467 0.389098 0.556157
163 1 0.437208 0.388435 0.0550458
164 1 0.438048 0.38788 0.0626524
165 1 0.438857 0.387304 0.934129
166 1 0.439664 0.386738 0.354179
167 1 0.440562 0.386299 0.745098
168 1 0.441357 0.385705 0.452648
169 1 0.442159 0.385123 0.801389
170 1 0.442922 0.384481 0.636703
171 1 0.44374 0.383924 0.893792
172 1 0.444587 0.383364 0.830357
173 1 0.445455 0.382828 0.419879
174 1 0.446065 0.382057 1.12587
175 1 0.446853 0.381455 0.361262
176 1 0.447629 0.380843 0.760362
177 1 0.448208 0.380028 0.69734
178 1 0.448941 0.379344 0.0145494
179 1 0.44956 0.378535 0.64878
180 1 0.450454 0.378023 0.260826
181 1 0.451384 0.377655 0.428482
182 1 0.452142 0.376978 0.523631
183 1 0.452903 0.376309 0.451764
184 1 0.453497 0.375495 0.749255
185 1 0.454187 0.374785 0.478913
186 1 0.454833 0.374011 0.163373
187 1 0.455595 0.373342 0.518002
188 1 0.456286 0.372623 0.8424
189 1 0.457199 0.372228 0.57513
190 1 0.458078 0.371743 0.921485
191 1 0.458836 0.371113 0.00313222
192 1 0.459496 0.370359 0.33133
193 1 0.460175 0.369643 0.51367
194 1 0.460932 0.368987 0.198658
195 1 0.461637 0.36829 0.185692
196 1 0.462497 0.367786 0.203407
197 1 0.463227 0.36712 0.842709
198 1 0.464062 0.366559 0.555461
199 1 0.464953 0.366084 0.246127
200 1 0.465763 0.365479 0.422924
ITEM: TIMESTEP
40000
ITEM: NUMBER OF ATOMS
200
ITEM: BOX BOUNDS pp pp pp
-500 500
-500 500
-0.05 0.05
ITEM: ATOMS id type xs ys zs
1 1 0.350383 0.500442 0.651465
2 1 0.351369 0.500418 0.553215
3 1 0.352343 0.50021 0.374674
4 1 0.353354 0.500074 0.511971
5 1 0.35438 0.500194 0.463714
6 1 0.355382 0.500363 0.584245
7 1 0.356351 0.500568 0.0872074
8 1 0.357369 0.500744 0.193202
9 1 0.358334 0.500943 -0.0604796
10 1 0.359306 0.500745 0.171024
11 1 0.360246 0.500369 0.0199878
12 1 0.36125 0.500374 0.237463
13 1 0.36223 0.500146 0.14505
14 1 0.363234 0.500265 -0.00412774
15 1 0.364204 0.500299 0.384791
16 1 0.36521 0.500231 0.475158
17 1 0.366112 0.499822 0.630992
18 1 0.367071 0.499435 0.75639
19 1 0.368069 0.499419 0.854257
20 1 0.369055 0.499586 0.665654
21 1 0.370036 0.499724 1.01842
22 1 0.371007 0.49982 0.343192
23 1 0.372016 0.499768 0.371193
24 1 0.372999 0.499588 0.0372518
25 1 0.37387 0.499105 0.0653615
26 1 0.374726 0.498588 0.603948
27 1 0.375578 0.498057 0.352602
28 1 0.376363 0.497453 0.665201
29 1 0.377241 0.496993 0.0240242
30 1 0.378166 0.496593 0.478343
31 1 0.378997 0.49606 -0.0648657
32 1 0.379941 0.495762 0.387104
33 1 0.380791 0.495247 0.208314
34 1 0.38173 0.494927 0.607285
35 1 0.382713 0.494848 1.04674
36 1 0.383706 0.494669 0.866429
37 1 0.384623 0.494254 0.836325
38 1 0.385203 0.49345 0.0728193
39 1 0.385886 0.492729 0.432586
40 1 0.386452 0.491907 0.433194
41 1 0.387309 0.491356 0.573285
42 1 0.387911 0.490572 0.0930558
43 1 0.388509 0.489762 0.79627
44 1 0.389062 0.488927 0.688319
45 1 0.38974 0.488189 0.468419
46 1 0.390433 0.487484 0.842544
47 1 0.390999 0.486658 0.328595
48 1 0.391578 0.485856 0.227894
49 1 0.391811 0.484884 0.509033
50 1 0.391946 0.483919 0.686908
51 1 0.392067 0.482934 0.445182
52 1 0.392089 0.481919 1.02227
53 1 0.392419 0.480975 0.103434
54 1 0.39262 0.479992 0.737386
55 1 0.393353 0.479327 0.284128
56 1 0.393885 0.478485 0.0323204
57 1 0.39426 0.477577 0.626157
58 1 0.394603 0.476626 0.931253
59 1 0.394881 0.475698 1.05227
60 1 0.395097 0.474726 0.736801
61 1 0.395091 0.473681 0.807845
62 1 0.395491 0.472758 0.816545
63 1 0.39579 0.471792 0.0611494
64 1 0.395984 0.470796 0.372002
65 1 0.395915 0.469788 0.795894
66 1 0.396038 0.468816 -0.0126003
67 1 0.396055 0.467809 0.258501
68 1 0.396044 0.466809 1.02771
69 1 0.3963 0.46586 0.297118
70 1 0.396328 0.464862 0.819641
71 1 0.396511 0.463879 -0.123523
72 1 0.396621 0.462901 0.996116
73 1 0.396907 0.461912 0.818906
74 1 0.396994 0.460908 0.0650327
75 1 0.396964 0.459924 0.352792
76 1 0.396808 0.458921 0.736
77 1 0.396985 0.457938 0.306806
78 1 0.396984 0.456952 0.533593
79 1 0.397091 0.455947 0.515548
80 1 0.397236 0.454976 0.795167
81 1 0.397601 0.454042 0.985815
82 1 0.398021 0.453151 0.923555
83 1 0.3984 0.452216 0.142253
84 1 0.398455 0.451237 0.789639
85 1 0.398377 0.450238 0.649472
86 1 0.398512 0.449275 0.0147982
87 1 0.398882 0.448325 0.131789
88 1 0.399327 0.447444 0.587936
89 1 0.399439 0.446447 0.494599
90 1 0.399286 0.445479 0.336052
91 1 0.399483 0.444511 0.847618
92 1 0.399496 0.443493 0.800312
93 1 0.399461 0.442485 0.591998
94 1 0.399556 0.441499 0.535499
95 1 0.399651 0.440484 0.952512
96 1 0.399788 0.439472 0.42487
97 1 0.399726 0.438462 0.431483
98 1 0.399765 0.437465 0.51107
99 1 0.399901 0.436479 0.809535
100 1 0.399723 0.435496 0.568971
101 1 0.399717 0.434469 0.754056
102 1 0.399481 0.433495 0.946615
103 1 0.399542 0.432494 0.28478
104 1 0.399702 0.43152 0.65234
105 1 0.400179 0.430635 0.451063
106 1 0.400559 0.429717 0.624608
107 1 0.400896 0.428786 0.253848
108 1 0.401376 0.427937 0.824021
109 1 0.401903 0.427112 0.886418
110 1 0.402381 0.426257 0.712665
111 1 0.402549 0.425278 0.420886
112 1 0.402732 0.424305 0.246589
113 1 0.403007 0.42333 0.242733
114 1 0.403354 0.422386 0.965196
115 1 0.404051 0.42166 0.363577
116 1 0.404541 0.420783 0.684155
117 1 0.404957 0.419845 -0.0518701
118 1 0.405694 0.419161 0.908608
119 1 0.406424 0.418472 0.830206
120 1 0.407118 0.417749 0.266033
121 1 0.407322 0.416744 0.508558
122 1 0.407692 0.415826 -0.0830596
123 1 0.408092 0.41492 0.496879
124 1 0.408755 0.414146 0.25167
125 1 0.409582 0.413563 0.508374
126 1 0.410145 0.412736 0.460511
127 1 0.410534 0.411828 0.649462
128 1 0.411221 0.411123 0.737081
129 1 0.411941 0.41043 0.31363
130 1 0.412703 0.40976 0.548491
131 1 0.413168 0.40889 0.0793789
132 1 0.413541 0.407955 1.01761
133 1 0.414034 0.407102 0.557654
134 1 0.414454 0.406188 1.08718
135 1 0.415114 0.405443 0.233312
136 1 0.41591 0.404852 0.322429
137 1 0.416554 0.404109 0.79241
138 1 0.417336 0.403479 0.99042
139 1 0.418243 0.403085 0.243937
140 1 0.418987 0.402409 0.14659
141 1 0.419942 0.402076 0.770388
142 1 0.420704 0.401408 1.02326
143 1 0.421479 0.400763 0.405082