ITEM: TIMESTEP
0
ITEM: NUMBER OF ATOMS
50
ITEM: BOX BOUNDS pp pp pp
-500 500
-500 500
-0.05 0.05
ITEM: ATOMS id type xs ys zs
1 1 0.35 0.5 0.5
2 1 0.353963 0.500546 0.5
3 1 0.357906 0.501219 0.5
4 1 0.361893 0.501538 0.5
5 1 0.365891 0.501413 0.5
6 1 0.369839 0.502053 0.5
7 1 0.373816 0.502487 0.5
8 1 0.377816 0.502469 0.5
9 1 0.381814 0.502352 0.5
10 1 0.385809 0.502146 0.5
11 1 0.389792 0.501785 0.5
12 1 0.393731 0.501087 0.5
13 1 0.397607 0.5001 0.5
14 1 0.401561 0.499492 0.5
15 1 0.405553 0.499246 0.5
16 1 0.409553 0.499272 0.5
17 1 0.413531 0.499695 0.5
18 1 0.417435 0.500564 0.5
19 1 0.421435 0.500584 0.5
20 1 0.42537 0.501305 0.5
21 1 0.42929 0.502098 0.5
22 1 0.433288 0.50196 0.5
23 1 0.437159 0.500953 0.5
24 1 0.440816 0.499333 0.5
25 1 0.444451 0.497664 0.5
26 1 0.448234 0.496362 0.5
27 1 0.451897 0.494755 0.5
28 1 0.455691 0.493489 0.5
29 1 0.459508 0.492292 0.5
30 1 0.463137 0.49061 0.5
31 1 0.46691 0.489283 0.5
32 1 0.470548 0.487619 0.5
33 1 0.474289 0.486204 0.5
34 1 0.478176 0.485261 0.5
35 1 0.482125 0.48462 0.5
36 1 0.486087 0.48407 0.5
37 1 0.490028 0.483384 0.5
38 1 0.494021 0.483159 0.5
39 1 0.497973 0.482542 0.5
40 1 0.501971 0.482405 0.5
41 1 0.505971 0.482363 0.5
42 1 0.509962 0.482624 0.5
43 1 0.513959 0.482474 0.5
44 1 0.517954 0.482672 0.5
45 1 0.521952 0.482822 0.5
46 1 0.525951 0.482727 0.5
47 1 0.529947 0.48289 0.5
48 1 0.533934 0.483213 0.5
49 1 0.537884 0.482581 0.5
50 1 0.541859 0.482138 0.5
ITEM: TIMESTEP
10000
ITEM: NUMBER OF ATOMS
50
ITEM: BOX BOUNDS pp pp pp
-500 500
-500 500
-0.05 0.05
ITEM: ATOMS id type xs ys zs
1 1 0.351591 0.500255 0.670927
2 1 0.354053 0.500672 0.215639
3 1 0.357888 0.501154 0.52347
4 1 0.361846 0.50164 0.0770972
5 1 0.365925 0.501964 0.619299
6 1 0.369684 0.50189 0.959194
7 1 0.373636 0.501881 0.540524
8 1 0.377297 0.501847 0.0736541
9 1 0.381473 0.501775 0.414947
10 1 0.38531 0.501483 0.401734
11 1 0.388864 0.501127 0.477762
12 1 0.393622 0.500594 0.825295
13 1 0.397651 0.500763 0.804983
14 1 0.401773 0.500865 0.680113
15 1 0.405497 0.501132 0.494573
16 1 0.409878 0.501252 0.561146
17 1 0.412912 0.501147 0.730007
18 1 0.416874 0.500646 0.827748
19 1 0.421595 0.50055 0.449813
20 1 0.42509 0.500208 0.372145
21 1 0.428647 0.500155 0.376389
22 1 0.432995 0.500104 0.0982555
23 1 0.437344 0.49986 0.207126
24 1 0.440641 0.49942 0.267939
25 1 0.444298 0.49855 0.286635
26 1 0.448366 0.496952 0.504757
27 1 0.45217 0.495483 0.648472
28 1 0.456446 0.49385 0.568723
29 1 0.459687 0.492196 0.448242
30 1 0.463269 0.490672 0.332847
31 1 0.466936 0.489164 0.192416
32 1 0.470555 0.487599 0.477413
33 1 0.474248 0.486531 0.625849
34 1 0.478268 0.485875 0.719691
35 1 0.482323 0.485227 0.807732
36 1 0.486419 0.484184 0.648035
37 1 0.490229 0.483243 0.618843
38 1 0.494547 0.482595 0.269254
39 1 0.498348 0.482279 0.569906
40 1 0.502022 0.482185 0.851498
41 1 0.506071 0.482526 0.608941
42 1 0.510103 0.482302 0.935766
43 1 0.5141 0.482552 0.872149
44 1 0.51814 0.482376 0.286684
45 1 0.521734 0.482359 0.0521789
46 1 0.526017 0.482334 0.161662
47 1 0.53007 0.482416 0.34494
48 1 0.533869 0.482542 0.391395
49 1 0.538001 0.482685 0.689433
50 1 0.540463 0.482706 0.220038
