#Actin filament

66 atoms
65 bonds
64 angles

1 atom types
3 bond types
1 angle types

-500 500 xlo xhi
-500 500 ylo yhi
-0.05 0.05 zlo zhi

Masses

1 1


Atoms

1 1 1 -150 0 0
2 1 1 -147.000547611 0.0573180955696 0
3 1 1 -144.013129241 -0.217147726404 0
4 1 1 -141.027131414 -0.506659335399 0
5 1 1 -138.104670505 -1.18431871864 0
6 1 1 -135.252095004 -2.11319600245 0
7 1 1 -132.331377863 -2.79833203454 0
8 1 1 -129.370781673 -3.28296612242 0
9 1 1 -126.38248548 -3.54770347705 0
10 1 1 -123.397136489 -3.84383081779 0
11 1 1 -120.413943783 -4.16094480204 0
12 1 1 -117.414567879 -4.22213455489 0
13 1 1 -114.415859713 -4.13410426095 0
14 1 1 -111.448413449 -4.57485665226 0
15 1 1 -108.47941757 -5.00504669286 0
16 1 1 -105.593301246 -5.82378509226 0
17 1 1 -102.695730367 -6.60101285764 0
18 1 1 -99.731342863 -7.06188889875 0
19 1 1 -96.8250246077 -7.80573982408 0
20 1 1 -93.9762702143 -8.74627074126 0
21 1 1 -91.0633085559 -9.46366489833 0
22 1 1 -88.1261161329 -10.0743208327 0
23 1 1 -85.308513339 -11.1044249515 0
24 1 1 -82.4659773433 -12.0635855812 0
25 1 1 -79.7710947113 -13.3817690281 0
26 1 1 -77.2181245141 -14.9573143852 0
27 1 1 -74.5988780736 -16.420033799 0
28 1 1 -72.0338628471 -17.9758926897 0
29 1 1 -69.2854387096 -19.1784585968 0
30 1 1 -66.5124811604 -20.3233194749 0
31 1 1 -63.6935664441 -21.3498280342 0
32 1 1 -60.8154906331 -22.1963973614 0
33 1 1 -57.964918993 -23.1314060912 0
34 1 1 -55.1252632706 -24.0990606672 0
35 1 1 -52.2073258814 -24.7959404222 0
36 1 1 -49.2607265719 -25.3594583977 0
37 1 1 -46.2654923487 -25.528490787 0
38 1 1 -43.2724628689 -25.7328789786 0
39 1 1 -40.3194551749 -26.2617887619 0
40 1 1 -37.3426571633 -26.6341778034 0
41 1 1 -34.3502548809 -26.4208035301 0
42 1 1 -31.3564972036 -26.2273740355 0
43 1 1 -28.3587824967 -26.1102991194 0
44 1 1 -25.4191098465 -25.5116968227 0
45 1 1 -22.433017027 -25.2231666271 0
46 1 1 -19.4335892628 -25.1645740748 0
47 1 1 -16.454071877 -25.5145399987 0
48 1 1 -13.454567105 -25.4600319922 0
49 1 1 -10.4571617458 -25.5847761791 0
50 1 1 -7.56109970677 -26.3676073654 0
51 1 1 -4.73533687672 -27.3751114241 0
52 1 1 -1.89815797542 -28.3500041783 0
53 1 1 0.95433004888 -29.2791500609 0
54 1 1 3.69967186856 -30.4887360616 0
55 1 1 6.55626191939 -31.4051929791 0
56 1 1 9.26343565517 -32.6979459966 0
57 1 1 11.9815424796 -33.9675503803 0
58 1 1 14.597336802 -35.4364343316 0
59 1 1 16.9574882756 -37.2883752113 0
60 1 1 19.4034818128 -39.0253598446 0
61 1 1 21.70491302 -40.9497855766 0
62 1 1 24.1926497774 -42.6264387388 0
63 1 1 26.5303355623 -44.5066581863 0
64 1 1 28.8097281609 -46.457137456 0
65 1 1 30.6680800046 -48.8122443379 0
66 1 1 32.4365543749 -51.2355681713 0


Bonds

0 1 1 2
1 2 2 3
2 3 3 4
3 1 4 5
4 2 5 6
5 3 6 7
6 1 7 8
7 2 8 9
8 3 9 10
9 1 10 11
10 2 11 12
11 3 12 13
12 1 13 14
13 2 14 15
14 3 15 16
15 1 16 17
16 2 17 18
17 3 18 19
18 1 19 20
19 2 20 21
20 3 21 22
21 1 22 23
22 2 23 24
23 3 24 25
24 1 25 26
25 2 26 27
26 3 27 28
27 1 28 29
28 2 29 30
29 3 30 31
30 1 31 32
31 2 32 33
32 3 33 34
33 1 34 35
34 2 35 36
35 3 36 37
36 1 37 38
37 2 38 39
38 3 39 40
39 1 40 41
40 2 41 42
41 3 42 43
42 1 43 44
43 2 44 45
44 3 45 46
45 1 46 47
46 2 47 48
47 3 48 49
48 1 49 50
49 2 50 51
50 3 51 52
51 1 52 53
52 2 53 54
53 3 54 55
54 1 55 56
55 2 56 57
56 3 57 58
57 1 58 59
58 2 59 60
59 3 60 61
60 1 61 62
61 2 62 63
62 3 63 64
63 1 64 65
64 2 65 66


Angles

1 1 1 2 3
2 1 2 3 4
3 1 3 4 5
4 1 4 5 6
5 1 5 6 7
6 1 6 7 8
7 1 7 8 9
8 1 8 9 10
9 1 9 10 11
10 1 10 11 12
11 1 11 12 13
12 1 12 13 14
13 1 13 14 15
14 1 14 15 16
15 1 15 16 17
16 1 16 17 18
17 1 17 18 19
18 1 18 19 20
19 1 19 20 21
20 1 20 21 22
21 1 21 22 23
22 1 22 23 24
23 1 23 24 25
24 1 24 25 26
25 1 25 26 27
26 1 26 27 28
27 1 27 28 29
28 1 28 29 30
29 1 29 30 31
30 1 30 31 32
31 1 31 32 33
32 1 32 33 34
33 1 33 34 35
34 1 34 35 36
35 1 35 36 37
36 1 36 37 38
37 1 37 38 39
38 1 38 39 40
39 1 39 40 41
40 1 40 41 42
41 1 41 42 43
42 1 42 43 44
43 1 43 44 45
44 1 44 45 46
45 1 45 46 47
46 1 46 47 48
47 1 47 48 49
48 1 48 49 50
49 1 49 50 51
50 1 50 51 52
51 1 51 52 53
52 1 52 53 54
53 1 53 54 55
54 1 54 55 56
55 1 55 56 57
56 1 56 57 58
57 1 57 58 59
58 1 58 59 60
59 1 59 60 61
60 1 60 61 62
61 1 61 62 63
62 1 62 63 64
63 1 63 64 65
64 1 64 65 66
