#Actin filament

47 atoms
46 bonds
45 angles

1 atom types
3 bond types
1 angle types

-500 500 xlo xhi
-500 500 ylo yhi
-0.05 0.05 zlo zhi

Masses

1 1


Atoms

1 1 1 -150 0 0
2 1 1 -145.76254046 -0.326246298595 0
3 1 1 -141.561361201 -0.968580193598 0
4 1 1 -137.446912001 -2.03338429649 0
5 1 1 -133.361681023 -3.20530061661 0
6 1 1 -129.223757437 -4.17488217303 0
7 1 1 -125.194625917 -5.52713924787 0
8 1 1 -121.061346852 -6.51633294329 0
9 1 1 -116.951091068 -7.59721100722 0
10 1 1 -112.800863314 -8.51269426261 0
11 1 1 -108.610195989 -9.22037171059 0
12 1 1 -104.51590145 -10.3602191685 0
13 1 1 -100.686098757 -12.2028019585 0
14 1 1 -96.9734307795 -14.2712788104 0
15 1 1 -93.1580384875 -16.1435185543 0
16 1 1 -89.471757675 -18.258662467 0
17 1 1 -85.761737602 -20.331884852 0
18 1 1 -82.020810588 -22.3488045519 0
19 1 1 -78.0972349659 -23.9822225443 0
20 1 1 -74.1075787555 -25.4468533247 0
21 1 1 -70.1817442784 -27.074834792 0
22 1 1 -66.1067735215 -28.281944286 0
23 1 1 -62.0316472093 -29.4885285307 0
24 1 1 -58.1272650257 -31.1673077791 0
25 1 1 -54.453471367 -33.3040670434 0
26 1 1 -50.5200191639 -34.9135557091 0
27 1 1 -46.7993544796 -36.9676137189 0
28 1 1 -43.2165103293 -39.2535988007 0
29 1 1 -39.5941986803 -41.4765154249 0
30 1 1 -36.0483504836 -43.8194752124 0
31 1 1 -32.549937393 -46.232690049 0
32 1 1 -28.8217389008 -48.2730419801 0
33 1 1 -24.921099446 -49.9604991923 0
34 1 1 -20.7583707304 -50.8173478608 0
35 1 1 -16.603480636 -51.7114330377 0
36 1 1 -12.5117834689 -52.8605693624 0
37 1 1 -8.48696018059 -54.2255959181 0
38 1 1 -4.67275385548 -56.1002505822 0
39 1 1 -0.624276271213 -57.3934362802 0
40 1 1 3.16817935359 -59.3117116343 0
41 1 1 6.98668444562 -61.1775944983 0
42 1 1 10.8982223427 -62.8396327889 0
43 1 1 14.9182151461 -64.2188201805 0
44 1 1 18.9952835093 -65.4188258312 0
45 1 1 23.0815774444 -66.5870303833 0
46 1 1 27.2757891251 -67.2733891655 0
47 1 1 31.3038815624 -68.6287383147 0


Bonds

0 1 1 2
1 2 2 3
2 3 3 4
3 1 4 5
4 2 5 6
5 3 6 7
6 1 7 8
7 2 8 9
8 3 9 10
9 1 10 11
10 2 11 12
11 3 12 13
12 1 13 14
13 2 14 15
14 3 15 16
15 1 16 17
16 2 17 18
17 3 18 19
18 1 19 20
19 2 20 21
20 3 21 22
21 1 22 23
22 2 23 24
23 3 24 25
24 1 25 26
25 2 26 27
26 3 27 28
27 1 28 29
28 2 29 30
29 3 30 31
30 1 31 32
31 2 32 33
32 3 33 34
33 1 34 35
34 2 35 36
35 3 36 37
36 1 37 38
37 2 38 39
38 3 39 40
39 1 40 41
40 2 41 42
41 3 42 43
42 1 43 44
43 2 44 45
44 3 45 46
45 1 46 47


Angles

1 1 1 2 3
2 1 2 3 4
3 1 3 4 5
4 1 4 5 6
5 1 5 6 7
6 1 6 7 8
7 1 7 8 9
8 1 8 9 10
9 1 9 10 11
10 1 10 11 12
11 1 11 12 13
12 1 12 13 14
13 1 13 14 15
14 1 14 15 16
15 1 15 16 17
16 1 16 17 18
17 1 17 18 19
18 1 18 19 20
19 1 19 20 21
20 1 20 21 22
21 1 21 22 23
22 1 22 23 24
23 1 23 24 25
24 1 24 25 26
25 1 25 26 27
26 1 26 27 28
27 1 27 28 29
28 1 28 29 30
29 1 29 30 31
30 1 30 31 32
31 1 31 32 33
32 1 32 33 34
33 1 33 34 35
34 1 34 35 36
35 1 35 36 37
36 1 36 37 38
37 1 37 38 39
38 1 38 39 40
39 1 39 40 41
40 1 40 41 42
41 1 41 42 43
42 1 42 43 44
43 1 43 44 45
44 1 44 45 46
45 1 45 46 47
