#Actin filament

7 atoms
6 bonds
5 angles

1 atom types
3 bond types
1 angle types

-500 500 xlo xhi
-500 500 ylo yhi
-0.05 0.05 zlo zhi

Masses

1 1


Atoms

1 1 1 -150 0 0
2 1 1 -122.315907978 4.19416844296 0
3 1 1 -94.7107314958 8.87970271109 0
4 1 1 -66.8707579229 11.8689955139 0
5 1 1 -38.9828837777 14.3722884768 0
6 1 1 -11.0557416892 16.3908857055 0
7 1 1 16.841710316 13.9966903056 0


Bonds

0 1 1 2
1 2 2 3
2 3 3 4
3 1 4 5
4 2 5 6
5 3 6 7


Angles

1 1 1 2 3
2 1 2 3 4
3 1 3 4 5
4 1 4 5 6
5 1 5 6 7
