#Actin filament

25 atoms
24 bonds
23 angles

1 atom types
3 bond types
1 angle types

-500 500 xlo xhi
-500 500 ylo yhi
-0.05 0.05 zlo zhi

Masses

1 1


Atoms

1 1 1 -150 0 0
2 1 1 -142.023605572 -0.614110679708 0
3 1 1 -134.115503437 -1.82320977618 0
4 1 1 -126.370657883 -3.82754691105 0
5 1 1 -118.680811338 -6.03350704303 0
6 1 1 -110.891778705 -7.85860173746 0
7 1 1 -103.307531138 -10.4040268195 0
8 1 1 -95.5272411326 -12.2660384815 0
9 1 1 -87.7902890684 -14.3006324842 0
10 1 1 -79.9780956493 -16.0238950826 0
11 1 1 -72.0897806845 -17.3559938082 0
12 1 1 -64.3828733168 -19.5015890231 0
13 1 1 -57.1738329548 -22.9699801572 0
14 1 1 -50.1852814672 -26.8635836431 0
15 1 1 -43.0033665648 -30.3877996317 0
16 1 1 -36.0644850354 -34.3692469967 0
17 1 1 -29.0809178391 -38.2717832509 0
18 1 1 -22.0391728715 -42.0683379801 0
19 1 1 -14.6536187594 -45.1430071422 0
20 1 1 -7.14367765746 -47.8999591995 0
21 1 1 0.246128417188 -50.9643949027 0
22 1 1 7.91666160663 -53.236601009 0
23 1 1 15.5874876061 -55.5078184108 0
24 1 1 22.9369128928 -58.6678734665 0
25 1 1 29.8522891914 -62.6900085522 0


Bonds

0 1 1 2
1 2 2 3
2 3 3 4
3 1 4 5
4 2 5 6
5 3 6 7
6 1 7 8
7 2 8 9
8 3 9 10
9 1 10 11
10 2 11 12
11 3 12 13
12 1 13 14
13 2 14 15
14 3 15 16
15 1 16 17
16 2 17 18
17 3 18 19
18 1 19 20
19 2 20 21
20 3 21 22
21 1 22 23
22 2 23 24
23 3 24 25


Angles

1 1 1 2 3
2 1 2 3 4
3 1 3 4 5
4 1 4 5 6
5 1 5 6 7
6 1 6 7 8
7 1 7 8 9
8 1 8 9 10
9 1 9 10 11
10 1 10 11 12
11 1 11 12 13
12 1 12 13 14
13 1 13 14 15
14 1 14 15 16
15 1 15 16 17
16 1 16 17 18
17 1 17 18 19
18 1 18 19 20
19 1 19 20 21
20 1 20 21 22
21 1 21 22 23
22 1 22 23 24
23 1 23 24 25
