#Actin filament

8 atoms
7 bonds
6 angles

1 atom types
3 bond types
1 angle types

-500 500 xlo xhi
-500 500 ylo yhi
-0.05 0.05 zlo zhi

Masses

1 1


Atoms

1 1 1 -150 0 0
2 1 1 -125.078807523 1.98347309272 0
3 1 1 -100.15231209 0.0677942422739 0
4 1 1 -75.1624514584 0.77973918443 0
5 1 1 -50.1667044029 1.24085645455 0
6 1 1 -25.1903666425 0.153404350433 0
7 1 1 -0.192090986629 -0.140218249604 0
8 1 1 24.660966191 -2.84679337804 0


Bonds

0 1 1 2
1 2 2 3
2 3 3 4
3 1 4 5
4 2 5 6
5 3 6 7
6 1 7 8


Angles

1 1 1 2 3
2 1 2 3 4
3 1 3 4 5
4 1 4 5 6
5 1 5 6 7
6 1 6 7 8
