#Actin filament

160 atoms
159 bonds
158 angles

1 atom types
3 bond types
1 angle types

-500 500 xlo xhi
-500 500 ylo yhi
-0.05 0.05 zlo zhi

Masses

1 1


Atoms

1 1 1 -150 0 0
2 1 1 -148.753688371 -0.0959547937044 0
3 1 1 -147.518047412 -0.284876527529 0
4 1 1 -146.307915294 -0.598054204851 0
5 1 1 -145.106376772 -0.942735475474 0
6 1 1 -143.889340423 -1.22790652148 0
7 1 1 -142.70430174 -1.62562919055 0
8 1 1 -141.488631427 -1.91656851273 0
9 1 1 -140.279732667 -2.23447382565 0
10 1 1 -139.059077445 -2.50373360665 0
11 1 1 -137.826528232 -2.71187403253 0
12 1 1 -136.622323956 -3.04712328486 0
13 1 1 -135.495911399 -3.58905939956 0
14 1 1 -134.403950229 -4.19743494424 0
15 1 1 -133.281776026 -4.74809369245 0
16 1 1 -132.197575787 -5.37019484324 0
17 1 1 -131.106393412 -5.97996613295 0
18 1 1 -130.006120761 -6.57317780938 0
19 1 1 -128.852127931 -7.05359486597 0
20 1 1 -127.678699634 -7.48436862492 0
21 1 1 -126.524042435 -7.96318670354 0
22 1 1 -125.325521624 -8.31821890766 0
23 1 1 -124.126955062 -8.67309662668 0
24 1 1 -122.978607361 -9.16685522914 0
25 1 1 -121.898079814 -9.79531383629 0
26 1 1 -120.741182107 -10.2686928556 0
27 1 1 -119.646868965 -10.8728275644 0
28 1 1 -118.593091273 -11.5451761179 0
29 1 1 -117.527705494 -12.198975125 0
30 1 1 -116.484808966 -12.8880809448 0
31 1 1 -115.455863939 -13.5978500144 0
32 1 1 -114.359334971 -14.1979535236 0
33 1 1 -113.212088072 -14.6942644683 0
34 1 1 -111.987756097 -14.9462787826 0
35 1 1 -110.765729599 -15.2092450111 0
36 1 1 -109.562289256 -15.547226283 0
37 1 1 -108.3785177 -15.9487046818 0
38 1 1 -107.25669231 -16.5000737006 0
39 1 1 -106.065963609 -16.8804224354 0
40 1 1 -104.950535484 -17.4446210689 0
41 1 1 -103.827445751 -17.9934101465 0
42 1 1 -102.676993429 -18.4822449379 0
43 1 1 -101.494642604 -18.8878882884 0
44 1 1 -100.29550485 -19.2408311268 0
45 1 1 -99.0936536928 -19.584420701 0
46 1 1 -97.860062022 -19.786290931 0
47 1 1 -96.6753289522 -20.1849230337 0
48 1 1 -95.4395348686 -20.3728405233 0
49 1 1 -94.1897332812 -20.3505696441 0
50 1 1 -92.9402105222 -20.3851076645 0
51 1 1 -91.6919037921 -20.4501484796 0
52 1 1 -90.451289376 -20.6030401744 0
53 1 1 -89.2188093857 -20.8115901054 0
54 1 1 -87.9745923214 -20.9316896343 0
55 1 1 -86.7306768165 -21.0548733046 0
56 1 1 -85.4991215359 -21.2688162662 0
57 1 1 -84.2709126922 -21.5012017997 0
58 1 1 -83.0365112178 -21.6980596168 0
59 1 1 -81.8150986009 -21.9638625875 0
60 1 1 -80.5740897511 -22.1135189759 0
61 1 1 -79.3251522094 -22.1650458321 0
62 1 1 -78.082994383 -22.3048454544 0
63 1 1 -76.8342008742 -22.3597523971 0
64 1 1 -75.6128177088 -22.625690667 0
65 1 1 -74.3824355531 -22.8462802198 0
66 1 1 -73.1563914881 -23.0898288818 0
67 1 1 -71.938892638 -23.3730188358 0
68 1 1 -70.6901715208 -23.4295482201 0
69 1 1 -69.4436872096 -23.5232331281 0
70 1 1 -68.195536208 -23.4552693342 0
71 1 1 -66.9703500471 -23.2074410242 0
72 1 1 -65.7731630017 -22.8479369516 0
73 1 1 -64.5779828422 -22.4818162252 0
74 1 1 -63.34640038 -22.2680297923 0
75 1 1 -62.1819127153 -21.8136417657 0
76 1 1 -60.9971468015 -21.4151072884 0
77 1 1 -59.7882718923 -21.0971112919 0
78 1 1 -58.6254542736 -20.6384663467 0
79 1 1 -57.4465230763 -20.2229892332 0
80 1 1 -56.2902790684 -19.7480157664 0
81 1 1 -55.2440624361 -19.0639611206 0
82 1 1 -54.1638415611 -18.4349755395 0
83 1 1 -53.0013630237 -17.9754718398 0
84 1 1 -51.9365143614 -17.3207983896 0
85 1 1 -50.9183634057 -16.5956303875 0
86 1 1 -49.9199844194 -15.843473888 0
87 1 1 -48.8989686408 -15.1223450646 0
88 1 1 -47.9292017669 -14.3336421989 0
89 1 1 -46.8612811809 -13.6839918145 0
90 1 1 -45.7682189026 -13.0775968477 0
91 1 1 -44.8099733722 -12.2749353353 0
92 1 1 -43.8692663784 -11.451788719 0
93 1 1 -42.8422487294 -10.7392336344 0
94 1 1 -41.9581446742 -9.85557079171 0
95 1 1 -41.1611631486 -8.89259600088 0
96 1 1 -40.2430410907 -8.04433195775 0
97 1 1 -39.3872069368 -7.13326231113 0
98 1 1 -38.5332221981 -6.22045890072 0
99 1 1 -37.6793831315 -5.30751922672 0
100 1 1 -36.8706035271 -4.35443184795 0
101 1 1 -35.9377086542 -3.52244197055 0
102 1 1 -34.8856943013 -2.84733768142 0
103 1 1 -33.7647303272 -2.29421945835 0
104 1 1 -32.6382531375 -1.75241770388 0
105 1 1 -31.5093310682 -1.21572881676 0
106 1 1 -30.4034690094 -0.633003232293 0
107 1 1 -29.2220275246 -0.224718995547 0
108 1 1 -28.0068003986 0.0680659635727 0
109 1 1 -26.7911282483 0.358997609987 0
110 1 1 -25.5568920744 0.556889164214 0
111 1 1 -24.3249034374 0.768322364449 0
112 1 1 -23.0886554665 0.953230326625 0
113 1 1 -21.9082486242 1.36449628278 0
114 1 1 -20.7855301022 1.91404438829 0
115 1 1 -19.6804280537 2.49821000052 0
116 1 1 -18.5467350046 3.02474591605 0
117 1 1 -17.4003940717 3.52314582131 0
118 1 1 -16.2747873555 4.06675369513 0
119 1 1 -15.07145458 4.40511774674 0
120 1 1 -13.8944530277 4.82603026233 0
121 1 1 -12.7408713711 5.30743379548 0
122 1 1 -11.5699130877 5.74487716149 0
123 1 1 -10.420106566 6.23522903788 0
124 1 1 -9.22000850073 6.58489263864 0
125 1 1 -8.04520394261 7.01189878639 0
126 1 1 -6.86701840286 7.4294857042 0
127 1 1 -5.67170510199 7.79517151575 0
128 1 1 -4.50671305293 8.24826480155 0
129 1 1 -3.34732345495 8.71550752229 0
130 1 1 -2.16573086225 9.12335423968 0
131 1 1 -0.960574812811 9.45516577729 0
132 1 1 0.268906863303 9.68072022327 0
133 1 1 1.49688003332 9.9143479051 0
134 1 1 2.72480415003 10.1482332693 0
135 1 1 3.95617300437 10.3632466283 0
136 1 1 5.16686821682 10.6742403623 0
137 1 1 6.41187709101 10.785832939 0
138 1 1 7.66111144048 10.7420889095 0
139 1 1 8.9070812212 10.6417928202 0
140 1 1 10.1549544944 10.5689073345 0
141 1 1 11.3889474136 10.3695045375 0
142 1 1 12.6065351788 10.0866971227 0
143 1 1 13.8563734276 10.0665886216 0
144 1 1 15.1052181289 10.0128586278 0
145 1 1 16.3549409564 9.98653650279 0
146 1 1 17.5985206378 10.1130654562 0
147 1 1 18.8441170542 10.2178965941 0
148 1 1 20.0940144114 10.2339152199 0
149 1 1 21.3439766904 10.2436260969 0
150 1 1 22.590569101 10.3358614584 0
151 1 1 23.8401438748 10.36846337 0
152 1 1 25.0651556175 10.617152393 0
153 1 1 26.2888518843 10.8722356084 0
154 1 1 27.5317002129 11.0057572624 0
155 1 1 28.7721180662 11.1602355755 0
156 1 1 30.016731995 11.2761500619 0
157 1 1 31.2592634968 11.4125885721 0
158 1 1 32.5005294596 11.5600972487 0
159 1 1 33.7348542276 11.757435453 0
160 1 1 34.9743405409 11.919218268 0


Bonds

0 1 1 2
1 2 2 3
2 3 3 4
3 1 4 5
4 2 5 6
5 3 6 7
6 1 7 8
7 2 8 9
8 3 9 10
9 1 10 11
10 2 11 12
11 3 12 13
12 1 13 14
13 2 14 15
14 3 15 16
15 1 16 17
16 2 17 18
17 3 18 19
18 1 19 20
19 2 20 21
20 3 21 22
21 1 22 23
22 2 23 24
23 3 24 25
24 1 25 26
25 2 26 27
26 3 27 28
27 1 28 29
28 2 29 30
29 3 30 31
30 1 31 32
31 2 32 33
32 3 33 34
33 1 34 35
34 2 35 36
35 3 36 37
36 1 37 38
37 2 38 39
38 3 39 40
39 1 40 41
40 2 41 42
41 3 42 43
42 1 43 44
43 2 44 45
44 3 45 46
45 1 46 47
46 2 47 48
47 3 48 49
48 1 49 50
49 2 50 51
50 3 51 52
51 1 52 53
52 2 53 54
53 3 54 55
54 1 55 56
55 2 56 57
56 3 57 58
57 1 58 59
58 2 59 60
59 3 60 61
60 1 61 62
61 2 62 63
62 3 63 64
63 1 64 65
64 2 65 66
65 3 66 67
66 1 67 68
67 2 68 69
68 3 69 70
69 1 70 71
70 2 71 72
71 3 72 73
72 1 73 74
73 2 74 75
74 3 75 76
75 1 76 77
76 2 77 78
77 3 78 79
78 1 79 80
79 2 80 81
80 3 81 82
81 1 82 83
82 2 83 84
83 3 84 85
84 1 85 86
85 2 86 87
86 3 87 88
87 1 88 89
88 2 89 90
89 3 90 91
90 1 91 92
91 2 92 93
92 3 93 94
93 1 94 95
94 2 95 96
95 3 96 97
96 1 97 98
97 2 98 99
98 3 99 100
99 1 100 101
100 2 101 102
101 3 102 103
102 1 103 104
103 2 104 105
104 3 105 106
105 1 106 107
106 2 107 108
107 3 108 109
108 1 109 110
109 2 110 111
110 3 111 112
111 1 112 113
112 2 113 114
113 3 114 115
114 1 115 116
115 2 116 117
116 3 117 118
117 1 118 119
118 2 119 120
119 3 120 121
120 1 121 122
121 2 122 123
122 3 123 124
123 1 124 125
124 2 125 126
125 3 126 127
126 1 127 128
127 2 128 129
128 3 129 130
129 1 130 131
130 2 131 132
131 3 132 133
132 1 133 134
133 2 134 135
134 3 135 136
135 1 136 137
136 2 137 138
137 3 138 139
138 1 139 140
139 2 140 141
140 3 141 142
141 1 142 143
142 2 143 144
143 3 144 145
144 1 145 146
145 2 146 147
146 3 147 148
147 1 148 149
148 2 149 150
149 3 150 151
150 1 151 152
151 2 152 153
152 3 153 154
153 1 154 155
154 2 155 156
155 3 156 157
156 1 157 158
157 2 158 159
158 3 159 160


Angles

1 1 1 2 3
2 1 2 3 4
3 1 3 4 5
4 1 4 5 6
5 1 5 6 7
6 1 6 7 8
7 1 7 8 9
8 1 8 9 10
9 1 9 10 11
10 1 10 11 12
11 1 11 12 13
12 1 12 13 14
13 1 13 14 15
14 1 14 15 16
15 1 15 16 17
16 1 16 17 18
17 1 17 18 19
18 1 18 19 20
19 1 19 20 21
20 1 20 21 22
21 1 21 22 23
22 1 22 23 24
23 1 23 24 25
24 1 24 25 26
25 1 25 26 27
26 1 26 27 28
27 1 27 28 29
28 1 28 29 30
29 1 29 30 31
30 1 30 31 32
31 1 31 32 33
32 1 32 33 34
33 1 33 34 35
34 1 34 35 36
35 1 35 36 37
36 1 36 37 38
37 1 37 38 39
38 1 38 39 40
39 1 39 40 41
40 1 40 41 42
41 1 41 42 43
42 1 42 43 44
43 1 43 44 45
44 1 44 45 46
45 1 45 46 47
46 1 46 47 48
47 1 47 48 49
48 1 48 49 50
49 1 49 50 51
50 1 50 51 52
51 1 51 52 53
52 1 52 53 54
53 1 53 54 55
54 1 54 55 56
55 1 55 56 57
56 1 56 57 58
57 1 57 58 59
58 1 58 59 60
59 1 59 60 61
60 1 60 61 62
61 1 61 62 63
62 1 62 63 64
63 1 63 64 65
64 1 64 65 66
65 1 65 66 67
66 1 66 67 68
67 1 67 68 69
68 1 68 69 70
69 1 69 70 71
70 1 70 71 72
71 1 71 72 73
72 1 72 73 74
73 1 73 74 75
74 1 74 75 76
75 1 75 76 77
76 1 76 77 78
77 1 77 78 79
78 1 78 79 80
79 1 79 80 81
80 1 80 81 82
81 1 81 82 83
82 1 82 83 84
83 1 83 84 85
84 1 84 85 86
85 1 85 86 87
86 1 86 87 88
87 1 87 88 89
88 1 88 89 90
89 1 89 90 91
90 1 90 91 92
91 1 91 92 93
92 1 92 93 94
93 1 93 94 95
94 1 94 95 96
95 1 95 96 97
96 1 96 97 98
97 1 97 98 99
98 1 98 99 100
99 1 99 100 101
100 1 100 101 102
101 1 101 102 103
102 1 102 103 104
103 1 103 104 105
104 1 104 105 106
105 1 105 106 107
106 1 106 107 108
107 1 107 108 109
108 1 108 109 110
109 1 109 110 111
110 1 110 111 112
111 1 111 112 113
112 1 112 113 114
113 1 113 114 115
114 1 114 115 116
115 1 115 116 117
116 1 116 117 118
117 1 117 118 119
118 1 118 119 120
119 1 119 120 121
120 1 120 121 122
121 1 121 122 123
122 1 122 123 124
123 1 123 124 125
124 1 124 125 126
125 1 125 126 127
126 1 126 127 128
127 1 127 128 129
128 1 128 129 130
129 1 129 130 131
130 1 130 131 132
131 1 131 132 133
132 1 132 133 134
133 1 133 134 135
134 1 134 135 136
135 1 135 136 137
136 1 136 137 138
137 1 137 138 139
138 1 138 139 140
139 1 139 140 141
140 1 140 141 142
141 1 141 142 143
142 1 142 143 144
143 1 143 144 145
144 1 144 145 146
145 1 145 146 147
146 1 146 147 148
147 1 147 148 149
148 1 148 149 150
149 1 149 150 151
150 1 150 151 152
151 1 151 152 153
152 1 152 153 154
153 1 153 154 155
154 1 154 155 156
155 1 155 156 157
156 1 156 157 158
157 1 157 158 159
158 1 158 159 160
