#Actin filament

18 atoms
17 bonds
16 angles

1 atom types
3 bond types
1 angle types

-500 500 xlo xhi
-500 500 ylo yhi
-0.05 0.05 zlo zhi

Masses

1 1


Atoms

1 1 1 -150 0 0
2 1 1 -139.013711599 -0.549060257719 0
3 1 1 -128.033910675 -1.21537224524 0
4 1 1 -117.065664972 -2.05058850986 0
5 1 1 -106.244561815 -4.02637353652 0
6 1 1 -95.3385820909 -5.46150636955 0
7 1 1 -84.4504595066 -7.02636629628 0
8 1 1 -73.5159332075 -8.22475463632 0
9 1 1 -62.6777173324 -10.1044026471 0
10 1 1 -51.8291592571 -11.9234099827 0
11 1 1 -40.829211046 -11.957164303 0
12 1 1 -29.8399341912 -12.4427507617 0
13 1 1 -18.8430593647 -12.7049416282 0
14 1 1 -7.84369219788 -12.5869504056 0
15 1 1 3.13692450847 -13.2396806318 0
16 1 1 14.1046359193 -14.0818839378 0
17 1 1 24.9137836963 -16.1220614634 0
18 1 1 35.8034944298 -17.6758311183 0


Bonds

0 1 1 2
1 2 2 3
2 3 3 4
3 1 4 5
4 2 5 6
5 3 6 7
6 1 7 8
7 2 8 9
8 3 9 10
9 1 10 11
10 2 11 12
11 3 12 13
12 1 13 14
13 2 14 15
14 3 15 16
15 1 16 17
16 2 17 18


Angles

1 1 1 2 3
2 1 2 3 4
3 1 3 4 5
4 1 4 5 6
5 1 5 6 7
6 1 6 7 8
7 1 7 8 9
8 1 8 9 10
9 1 9 10 11
10 1 10 11 12
11 1 11 12 13
12 1 12 13 14
13 1 13 14 15
14 1 14 15 16
15 1 15 16 17
16 1 16 17 18
