#Actin filament

1052 atoms
1051 bonds
1050 angles

1 atom types
3 bond types
1 angle types

-500 500 xlo xhi
-500 500 ylo yhi
-0.05 0.05 zlo zhi

Masses

1 1


Atoms

1 1 1 -150 0 0
2 1 1 -149.810040091 -0.00390293657729 0
3 1 1 -149.620349352 -0.0147391519953 0
4 1 1 -149.43071191 -0.0264711787487 0
5 1 1 -149.241182266 -0.0131102561057 0
6 1 1 -149.05260572 0.0101036717335 0
7 1 1 -148.868126321 0.0555718062106 0
8 1 1 -148.68499791 0.106207612042 0
9 1 1 -148.49898273 0.144916178026 0
10 1 1 -148.318617431 0.204651919837 0
11 1 1 -148.132603714 0.243367512711 0
12 1 1 -147.950439646 0.297369849694 0
13 1 1 -147.775202995 0.370800877925 0
14 1 1 -147.606781012 0.458744245224 0
15 1 1 -147.438166809 0.54631850237 0
16 1 1 -147.267392655 0.629602284036 0
17 1 1 -147.09548002 0.710509921994 0
18 1 1 -146.933546901 0.80989636409 0
19 1 1 -146.769753256 0.906185729983 0
20 1 1 -146.598437886 0.988350466068 0
21 1 1 -146.434467452 1.08433846958 0
22 1 1 -146.266340722 1.17284498167 0
23 1 1 -146.086277355 1.23348477034 0
24 1 1 -145.904927777 1.29016219691 0
25 1 1 -145.726942514 1.35665464763 0
26 1 1 -145.55063436 1.4274743825 0
27 1 1 -145.376762971 1.50408208452 0
28 1 1 -145.194799818 1.55875759033 0
29 1 1 -145.019841075 1.63284833494 0
30 1 1 -144.850689302 1.71937970256 0
31 1 1 -144.679584217 1.80198145776 0
32 1 1 -144.506173968 1.87962735655 0
33 1 1 -144.341338332 1.97412186991 0
34 1 1 -144.175277383 2.06644608653 0
35 1 1 -143.999125992 2.13765484722 0
36 1 1 -143.821559985 2.20525893895 0
37 1 1 -143.641703646 2.26651003922 0
38 1 1 -143.461340232 2.32625147211 0
39 1 1 -143.290515897 2.40943227972 0
40 1 1 -143.121975442 2.49714838317 0
41 1 1 -142.968398968 2.6090155668 0
42 1 1 -142.800956241 2.69880940388 0
43 1 1 -142.624906212 2.77026839278 0
44 1 1 -142.444397251 2.82956860625 0
45 1 1 -142.268754499 2.90202289158 0
46 1 1 -142.102120992 2.99330966224 0
47 1 1 -141.927091568 3.0672332761 0
48 1 1 -141.779385614 3.18674457747 0
49 1 1 -141.62715112 3.30043124613 0
50 1 1 -141.473394899 3.41205124771 0
51 1 1 -141.320635223 3.52503125173 0
52 1 1 -141.158833927 3.62463215849 0
53 1 1 -140.999966161 3.72884843709 0
54 1 1 -140.842328073 3.83491555505 0
55 1 1 -140.693652573 3.95321853748 0
56 1 1 -140.545164277 4.07175640369 0
57 1 1 -140.40289836 4.19769451937 0
58 1 1 -140.279012463 4.34175105194 0
59 1 1 -140.132387593 4.46258625995 0
60 1 1 -139.989731149 4.58808183292 0
61 1 1 -139.83580813 4.69947170885 0
62 1 1 -139.692013365 4.82366134417 0
63 1 1 -139.5328722 4.92745965516 0
64 1 1 -139.379810913 5.04003071063 0
65 1 1 -139.234668753 5.16264291804 0
66 1 1 -139.084968669 5.27964669979 0
67 1 1 -138.951259731 5.4146352914 0
68 1 1 -138.816367042 5.54844098014 0
69 1 1 -138.667287954 5.66623497705 0
70 1 1 -138.544365709 5.81111465639 0
71 1 1 -138.429453994 5.96242657903 0
72 1 1 -138.321059543 6.1184735045 0
73 1 1 -138.223791634 6.28168794566 0
74 1 1 -138.121398878 6.44173707418 0
75 1 1 -137.992473509 6.58130157318 0
76 1 1 -137.849563056 6.70650781247 0
77 1 1 -137.70133094 6.82536587772 0
78 1 1 -137.538018709 6.92246950996 0
79 1 1 -137.367461174 7.00619601171 0
80 1 1 -137.19692478 7.08996556757 0
81 1 1 -137.025754179 7.17243147117 0
82 1 1 -136.858140141 7.26190512163 0
83 1 1 -136.687318379 7.34509121185 0
84 1 1 -136.508062056 7.40807669259 0
85 1 1 -136.335519709 7.48763257539 0
86 1 1 -136.165104769 7.57164893324 0
87 1 1 -135.998133045 7.66231559401 0
88 1 1 -135.837513541 7.76381128191 0
89 1 1 -135.6516335 7.80316367092 0
90 1 1 -135.465362807 7.8406233686 0
91 1 1 -135.282006663 7.89042823333 0
92 1 1 -135.098740092 7.94056169189 0
93 1 1 -134.914964822 7.98879705453 0
94 1 1 -134.725352202 8.00092366234 0
95 1 1 -134.543404577 8.05565081825 0
96 1 1 -134.357716955 8.09590137037 0
97 1 1 -134.172277947 8.13728221435 0
98 1 1 -133.98361802 8.15980846556 0
99 1 1 -133.796461598 8.19255710912 0
100 1 1 -133.607635335 8.2136436577 0
101 1 1 -133.417970339 8.22492148582 0
102 1 1 -133.229580673 8.2002367982 0
103 1 1 -133.039864222 8.18986046651 0
104 1 1 -132.849908576 8.18575531515 0
105 1 1 -132.660133687 8.19500147875 0
106 1 1 -132.470134823 8.19434431521 0
107 1 1 -132.283054757 8.16116226198 0
108 1 1 -132.093271562 8.15208818463 0
109 1 1 -131.903294548 8.14913279862 0
110 1 1 -131.713663306 8.13730098058 0
111 1 1 -131.524091073 8.15004336744 0
112 1 1 -131.334204859 8.15661801139 0
113 1 1 -131.147489324 8.1917934117 0
114 1 1 -130.960476953 8.22535489694 0
115 1 1 -130.771497925 8.24502536024 0
116 1 1 -130.582232039 8.26171141458 0
117 1 1 -130.394407356 8.2903800073 0
118 1 1 -130.204793461 8.30248665195 0
119 1 1 -130.015864194 8.32262944832 0
120 1 1 -129.825979474 8.32924708752 0
121 1 1 -129.636218057 8.31972844805 0
122 1 1 -129.449063933 8.28696667484 0
123 1 1 -129.272250573 8.21741787418 0
124 1 1 -129.113536622 8.11296749391 0
125 1 1 -128.959129947 8.00224902783 0
126 1 1 -128.826105257 7.86658609399 0
127 1 1 -128.69762597 7.72661083558 0
128 1 1 -128.550879029 7.60592390447 0
129 1 1 -128.398211701 7.49281914385 0
130 1 1 -128.23825651 7.39027970396 0
131 1 1 -128.059170551 7.3268114475 0
132 1 1 -127.879618802 7.264673139 0
133 1 1 -127.709685488 7.17968685275 0
134 1 1 -127.544844963 7.08520086795 0
135 1 1 -127.379923744 6.99085580172 0
136 1 1 -127.211579515 6.90276368879 0
137 1 1 -127.053009889 6.79809433422 0
138 1 1 -126.893777692 6.69443572345 0
139 1 1 -126.735917063 6.58870010224 0
140 1 1 -126.591784697 6.46490244036 0
141 1 1 -126.44401283 6.34547264776 0
142 1 1 -126.283178329 6.24431799755 0
143 1 1 -126.131255301 6.13021543954 0
144 1 1 -125.981404058 6.01340531695 0
145 1 1 -125.856312983 5.8703940483 0
146 1 1 -125.74771194 5.71449082974 0
147 1 1 -125.641011011 5.55728106024 0
148 1 1 -125.565138854 5.38308744429 0
149 1 1 -125.464054909 5.22220849601 0
150 1 1 -125.357284333 5.06504601894 0
151 1 1 -125.247333356 4.91009188781 0
152 1 1 -125.137556048 4.75501467278 0
153 1 1 -125.019678862 4.60600135513 0
154 1 1 -124.910272809 4.45066199858 0
155 1 1 -124.810328799 4.2890724108 0
156 1 1 -124.700666543 4.13391381589 0
157 1 1 -124.589143151 3.98008750812 0
158 1 1 -124.473124002 3.82962303643 0
159 1 1 -124.37146746 3.66910528843 0
160 1 1 -124.252239481 3.5211705431 0
161 1 1 -124.131837075 3.37419006611 0
162 1 1 -124.012303105 3.22650245604 0
163 1 1 -123.866217844 3.10501543461 0
164 1 1 -123.717694667 2.98652127443 0
165 1 1 -123.569506765 2.86760808862 0
166 1 1 -123.405146658 2.77228886054 0
167 1 1 -123.238282478 2.68142442702 0
168 1 1 -123.079198414 2.57753862184 0
169 1 1 -122.922044055 2.47075609674 0
170 1 1 -122.778149674 2.3466818975 0
171 1 1 -122.632124843 2.22512224619 0
172 1 1 -122.476905562 2.11554590402 0
173 1 1 -122.310922785 2.02308122078 0
174 1 1 -122.141564357 1.93695501732 0
175 1 1 -121.968182153 1.85924651363 0
176 1 1 -121.789924141 1.79348876902 0
177 1 1 -121.607653723 1.73984648301 0
178 1 1 -121.427892601 1.67831649921 0
179 1 1 -121.245871432 1.62383444783 0
180 1 1 -121.059036791 1.58929726194 0
181 1 1 -120.871360786 1.55967097535 0
182 1 1 -120.691232193 1.49922521443 0
183 1 1 -120.502027685 1.48185702169 0
184 1 1 -120.316655018 1.44017999651 0
185 1 1 -120.13332393 1.39028298057 0
186 1 1 -119.95303511 1.3303168117 0
187 1 1 -119.77243913 1.27128214355 0
188 1 1 -119.591297319 1.21394415907 0
189 1 1 -119.402851438 1.18969236382 0
190 1 1 -119.212916394 1.19466020294 0
191 1 1 -119.023285602 1.18282117718 0
192 1 1 -118.83501905 1.15721443009 0
193 1 1 -118.646105112 1.13692837356 0
194 1 1 -118.459476612 1.1012940784 0
195 1 1 -118.270011964 1.08704111859 0
196 1 1 -118.087403295 1.03456184529 0
197 1 1 -117.903897884 0.985309798314 0
198 1 1 -117.717415611 0.948918013517 0
199 1 1 -117.532833862 0.903867177358 0
200 1 1 -117.344109652 0.881885993636 0
201 1 1 -117.155895387 0.907874273528 0
202 1 1 -116.96593459 0.911733737326 0
203 1 1 -116.775974318 0.907848520046 0
204 1 1 -116.586004836 0.911253825107 0
205 1 1 -116.396185971 0.919548310028 0
206 1 1 -116.208111836 0.892564615996 0
207 1 1 -116.018920876 0.875049463744 0
208 1 1 -115.837372547 0.819011939561 0
209 1 1 -115.663361487 0.742722024858 0
210 1 1 -115.484397668 0.678910178771 0
211 1 1 -115.304391228 0.618101615843 0
212 1 1 -115.125291163 0.554673178231 0
213 1 1 -114.946435379 0.490559148537 0
214 1 1 -114.767416117 0.426903012231 0
215 1 1 -114.589095417 0.361315451851 0
216 1 1 -114.403168602 0.322184653762 0
217 1 1 -114.215552845 0.292179190064 0
218 1 1 -114.032716164 0.240499909895 0
219 1 1 -113.843192612 0.227052858577 0
220 1 1 -113.66969477 0.149602883501 0
221 1 1 -113.492095242 0.0820869005466 0
222 1 1 -113.310611016 0.0258421191218 0
223 1 1 -113.128502518 -0.0283473180011 0
224 1 1 -112.94914172 -0.0910346693138 0
225 1 1 -112.762412774 -0.12613881032 0
226 1 1 -112.574974116 -0.157231408792 0
227 1 1 -112.386556011 -0.181698073695 0
228 1 1 -112.198659063 -0.209889155149 0
229 1 1 -112.010181052 -0.233889974578 0
230 1 1 -111.821628037 -0.257294256757 0
231 1 1 -111.636743194 -0.301084608624 0
232 1 1 -111.458712664 -0.367455764775 0
233 1 1 -111.274365795 -0.413458285911 0
234 1 1 -111.086034594 -0.438585135672 0
235 1 1 -110.89632631 -0.449109725675 0
236 1 1 -110.707153066 -0.466815196972 0
237 1 1 -110.520645913 -0.503079257207 0
238 1 1 -110.333570753 -0.536288956923 0
239 1 1 -110.147255806 -0.573527925957 0
240 1 1 -109.95762805 -0.585415482157 0
241 1 1 -109.767675154 -0.589646023029 0
242 1 1 -109.579198576 -0.613658092037 0
243 1 1 -109.391222521 -0.641316773485 0
244 1 1 -109.203537878 -0.670888295196 0
245 1 1 -109.014565023 -0.690617963841 0
246 1 1 -108.825986305 -0.713814241766 0
247 1 1 -108.637128296 -0.734614539825 0
248 1 1 -108.456662635 -0.794046393628 0
249 1 1 -108.275108384 -0.85006472831 0
250 1 1 -108.093699324 -0.906551478464 0
251 1 1 -107.908613157 -0.949482947333 0
252 1 1 -107.729371737 -1.01251082453 0
253 1 1 -107.547655985 -1.06800303462 0
254 1 1 -107.37766011 -1.15286411269 0
255 1 1 -107.201525466 -1.22411428573 0
256 1 1 -107.032753857 -1.31138480691 0
257 1 1 -106.858143187 -1.38629217566 0
258 1 1 -106.684897095 -1.46430365948 0
259 1 1 -106.525628909 -1.56790696517 0
260 1 1 -106.37157054 -1.67910956813 0
261 1 1 -106.209529327 -1.77831967628 0
262 1 1 -106.037084004 -1.85808564998 0
263 1 1 -105.855539935 -1.91413697324 0
264 1 1 -105.674144592 -1.97066775703 0
265 1 1 -105.487118794 -2.00415433475 0
266 1 1 -105.297652278 -2.0183824528 0
267 1 1 -105.108091929 -2.03130042532 0
268 1 1 -104.91907629 -2.05061591779 0
269 1 1 -104.730774874 -2.07596501722 0
270 1 1 -104.544442136 -2.11311485909 0
271 1 1 -104.354961978 -2.12716012836 0
272 1 1 -104.165109931 -2.13465682455 0
273 1 1 -103.97511814 -2.13289072971 0
274 1 1 -103.785217481 -2.12674746818 0
275 1 1 -103.59575432 -2.11247474098 0
276 1 1 -103.407004351 -2.13423362638 0
277 1 1 -103.223228769 -2.18246780276 0
278 1 1 -103.03751663 -2.22260508361 0
279 1 1 -102.852959882 -2.26775823022 0
280 1 1 -102.666730892 -2.30542470402 0
281 1 1 -102.482323396 -2.35118358693 0
282 1 1 -102.295956794 -2.38816317197 0
283 1 1 -102.114083553 -2.44313702456 0
284 1 1 -101.939900474 -2.51903336739 0
285 1 1 -101.776242741 -2.61555355465 0
286 1 1 -101.607881805 -2.70361373443 0
287 1 1 -101.451480723 -2.81149654752 0
288 1 1 -101.278379451 -2.88982885053 0
289 1 1 -101.103570718 -2.96427283555 0
290 1 1 -100.92802556 -3.0369632577 0
291 1 1 -100.7441692 -3.08488860333 0
292 1 1 -100.564127365 -3.14559229016 0
293 1 1 -100.378323559 -3.18530306883 0
294 1 1 -100.195381664 -3.23660865213 0
295 1 1 -100.005507754 -3.24352950867 0
296 1 1 -99.8171480466 -3.26844177002 0
297 1 1 -99.6272916927 -3.27582857609 0
298 1 1 -99.4373546596 -3.28071973433 0
299 1 1 -99.2489582139 -3.30535262409 0
300 1 1 -99.0620638373 -3.33956507767 0
301 1 1 -98.8777059982 -3.38552361539 0
302 1 1 -98.6960750113 -3.44129264423 0
303 1 1 -98.5142692604 -3.49648928308 0
304 1 1 -98.3290316022 -3.53876232394 0
305 1 1 -98.1414885508 -3.56921891391 0
306 1 1 -97.9538806247 -3.59927329942 0
307 1 1 -97.7679622771 -3.63844430912 0
308 1 1 -97.5860881805 -3.6934153286 0
309 1 1 -97.4026270502 -3.7428320633 0
310 1 1 -97.2192412127 -3.7925274816 0
311 1 1 -97.0398288818 -3.85506719341 0
312 1 1 -96.8646008901 -3.92851888442 0
313 1 1 -96.6821755303 -3.98163185938 0
314 1 1 -96.5044153448 -4.04872371007 0
315 1 1 -96.3277395451 -4.11862121929 0
316 1 1 -96.1649655842 -4.21662447271 0
317 1 1 -95.9968591493 -4.30516952641 0
318 1 1 -95.8295659398 -4.39524162013 0
319 1 1 -95.6509327888 -4.45997335391 0
320 1 1 -95.4664094259 -4.50526274046 0
321 1 1 -95.2802590066 -4.54331561664 0
322 1 1 -95.0977681424 -4.5962030866 0
323 1 1 -94.9114079648 -4.63321503337 0
324 1 1 -94.7280465754 -4.68300058253 0
325 1 1 -94.5417216185 -4.72018943084 0
326 1 1 -94.3544787834 -4.7524403328 0
327 1 1 -94.164494198 -4.75002014039 0
328 1 1 -93.9749082342 -4.76255658025 0
329 1 1 -93.7893980393 -4.80361711586 0
330 1 1 -93.599415746 -4.80102323227 0
331 1 1 -93.4107383819 -4.82340296159 0
332 1 1 -93.2210332426 -4.83398408295 0
333 1 1 -93.0330900421 -4.86186514069 0
334 1 1 -92.8483300826 -4.90617944254 0
335 1 1 -92.6679032801 -4.96572916071 0
336 1 1 -92.4843363995 -5.01475160827 0
337 1 1 -92.29719373 -5.04757875011 0
338 1 1 -92.1086067188 -5.07070750295 0
339 1 1 -91.9195732772 -5.05156702284 0
340 1 1 -91.7361374392 -5.00205648521 0
341 1 1 -91.5464055345 -4.991966673 0
342 1 1 -91.3564058312 -4.99163085152 0
343 1 1 -91.1664063878 -4.99117098918 0
344 1 1 -90.9767639506 -5.00282199963 0
345 1 1 -90.78689295 -5.00982222304 0
346 1 1 -90.5968998816 -5.01144516628 0
347 1 1 -90.4109010443 -4.97265815137 0
348 1 1 -90.2324163792 -4.9075181152 0
349 1 1 -90.050459999 -4.85282007379 0
350 1 1 -89.8618035201 -4.83026496462 0
351 1 1 -89.671838479 -4.83390957448 0
352 1 1 -89.4840475077 -4.86279817253 0
353 1 1 -89.2960503865 -4.89031330297 0
354 1 1 -89.1077660225 -4.91578874732 0
355 1 1 -88.9204090627 -4.94736990637 0
356 1 1 -88.73223043 -4.97361494793 0
357 1 1 -88.5422500572 -4.97634587079 0
358 1 1 -88.3525849707 -4.98762217171 0
359 1 1 -88.1626683279 -4.99324967631 0
360 1 1 -87.9727131628 -4.99737705589 0
361 1 1 -87.7828113055 -4.99127094651 0
362 1 1 -87.5982966152 -4.94594623962 0
363 1 1 -87.4122291364 -4.90748985708 0
364 1 1 -87.225599833 -4.87185977003 0
365 1 1 -87.035605133 -4.87327891304 0
366 1 1 -86.8456353153 -4.87666541022 0
367 1 1 -86.6556653883 -4.88004576966 0
368 1 1 -86.4685946937 -4.91328061947 0
369 1 1 -86.2819387186 -4.94877071588 0
370 1 1 -86.0956704697 -4.98624256475 0
371 1 1 -85.9115128469 -5.03299692244 0
372 1 1 -85.7275016267 -5.08032419614 0
373 1 1 -85.5447022271 -5.13213519422 0
374 1 1 -85.3614405832 -5.18228666363 0
375 1 1 -85.1771083552 -5.2283478154 0
376 1 1 -84.9986536208 -5.29356980374 0
377 1 1 -84.8171861297 -5.34986855745 0
378 1 1 -84.6500604978 -5.44025120606 0
379 1 1 -84.4960441833 -5.55151204764 0
380 1 1 -84.331341885 -5.64623877539 0
381 1 1 -84.160739221 -5.72987328389 0
382 1 1 -83.994090939 -5.82113307851 0
383 1 1 -83.8183318028 -5.89330458291 0
384 1 1 -83.6400586073 -5.95902115431 0
385 1 1 -83.4697238647 -6.04319998456 0
386 1 1 -83.3035163879 -6.13526015336 0
387 1 1 -83.1331577861 -6.21939068755 0
388 1 1 -82.9755689829 -6.325531015 0
389 1 1 -82.8214029244 -6.4365842743 0
390 1 1 -82.663788367 -6.5426863538 0
391 1 1 -82.5176216913 -6.6640754099 0
392 1 1 -82.376737862 -6.79155774839 0
393 1 1 -82.2321120392 -6.91477857206 0
394 1 1 -82.0664376009 -7.00779459491 0
395 1 1 -81.8986500829 -7.09694249895 0
396 1 1 -81.72584734 -7.17593118194 0
397 1 1 -81.5531149153 -7.25507351861 0
398 1 1 -81.3866376735 -7.34664495499 0
399 1 1 -81.2127818025 -7.42328786794 0
400 1 1 -81.0547122299 -7.52871087407 0
401 1 1 -80.8823836162 -7.60872867778 0
402 1 1 -80.704757019 -7.67617341043 0
403 1 1 -80.5223026758 -7.72918673582 0
404 1 1 -80.334938485 -7.76072496654 0
405 1 1 -80.1453702686 -7.77352697119 0
406 1 1 -79.9555223627 -7.78112780243 0
407 1 1 -79.767931486 -7.75096718273 0
408 1 1 -79.583647895 -7.70471182525 0
409 1 1 -79.4004018295 -7.65450346463 0
410 1 1 -79.2256071673 -7.58002644761 0
411 1 1 -79.0547133432 -7.49698849917 0
412 1 1 -78.8768045005 -7.43029184496 0
413 1 1 -78.6986493838 -7.36425583662 0
414 1 1 -78.5257646548 -7.28544676053 0
415 1 1 -78.3518212496 -7.20900271705 0
416 1 1 -78.1847717392 -7.11847945449 0
417 1 1 -78.0096983938 -7.0446599196 0
418 1 1 -77.8311298938 -6.97975005273 0
419 1 1 -77.6536672308 -6.911875144 0
420 1 1 -77.4738519948 -6.85050348193 0
421 1 1 -77.2846686989 -6.83290573936 0
422 1 1 -77.0962495479 -6.80844713064 0
423 1 1 -76.9086894907 -6.77809544299 0
424 1 1 -76.7211717383 -6.74748347572 0
425 1 1 -76.5407050417 -6.6880547671 0
426 1 1 -76.3553818571 -6.64615826045 0
427 1 1 -76.1772535117 -6.5800500722 0
428 1 1 -76.0058063321 -6.49816072854 0
429 1 1 -75.8237226626 -6.44388792382 0
430 1 1 -75.6485681564 -6.37026116953 0
431 1 1 -75.4684457993 -6.30979682913 0
432 1 1 -75.3002588005 -6.22140489831 0
433 1 1 -75.1391701335 -6.12065549947 0
434 1 1 -74.9789034024 -6.01860367481 0
435 1 1 -74.8080340854 -5.93551530927 0
436 1 1 -74.6336164356 -5.86015959655 0
437 1 1 -74.4524077887 -5.80303319035 0
438 1 1 -74.2742339395 -5.73704774137 0
439 1 1 -74.0966672776 -5.66944537027 0
440 1 1 -73.9125679878 -5.62246184659 0
441 1 1 -73.7271281481 -5.58108472937 0
442 1 1 -73.5420156568 -5.53826691082 0
443 1 1 -73.3545405563 -5.50739480844 0
444 1 1 -73.1723379732 -5.45352256424 0
445 1 1 -72.9927299679 -5.3915470494 0
446 1 1 -72.8107520318 -5.33692076672 0
447 1 1 -72.6287644224 -5.28232671924 0
448 1 1 -72.4438098151 -5.23883196948 0
449 1 1 -72.2562249318 -5.20863409646 0
450 1 1 -72.0709318824 -5.1666045135 0
451 1 1 -71.8889362505 -5.11203721588 0
452 1 1 -71.703916543 -5.06882023002 0
453 1 1 -71.5140978808 -5.06052110519 0
454 1 1 -71.3285568762 -5.019600015 0
455 1 1 -71.1468367107 -4.96412225868 0
456 1 1 -70.9693652397 -4.89627038348 0
457 1 1 -70.7854764011 -4.84846980794 0
458 1 1 -70.6028483483 -4.796058031 0
459 1 1 -70.4137648859 -4.7774181753 0
460 1 1 -70.2237650772 -4.77768779581 0
461 1 1 -70.0337782875 -4.77544731238 0
462 1 1 -69.8439759351 -4.76678319158 0
463 1 1 -69.6543760165 -4.77910678245 0
464 1 1 -69.4659831365 -4.80376692742 0
465 1 1 -69.2830392776 -4.85506550909 0
466 1 1 -69.0980410156 -4.89837420422 0
467 1 1 -68.9140262668 -4.94568775661 0
468 1 1 -68.7371503662 -5.01507735069 0
469 1 1 -68.549824148 -5.04684034794 0
470 1 1 -68.360221867 -5.05912753813 0
471 1 1 -68.170532533 -5.06998831798 0
472 1 1 -67.9813906983 -5.05195040343 0
473 1 1 -67.7933722622 -5.024581302 0
474 1 1 -67.6055963008 -4.99559529996 0
475 1 1 -67.4157111022 -4.98899141061 0
476 1 1 -67.2280457352 -4.95929780803 0
477 1 1 -67.0417872041 -4.92177768582 0
478 1 1 -66.8605541279 -4.86472882863 0
479 1 1 -66.6921979806 -4.77665949425 0
480 1 1 -66.5300947718 -4.67755071716 0
481 1 1 -66.3589192424 -4.59509504341 0
482 1 1 -66.1858322106 -4.51673127984 0
483 1 1 -66.0128728204 -4.43808619522 0
484 1 1 -65.8312395328 -4.38232465977 0
485 1 1 -65.6540967452 -4.31361925388 0
486 1 1 -65.4726736957 -4.2571774512 0
487 1 1 -65.2855967703 -4.22397769231 0
488 1 1 -65.1057002688 -4.16284465075 0
489 1 1 -64.9195221281 -4.12492763707 0
490 1 1 -64.7408856997 -4.06020494835 0
491 1 1 -64.5679058603 -3.98160485186 0
492 1 1 -64.400547088 -3.89165463596 0
493 1 1 -64.2328579391 -3.80232183508 0
494 1 1 -64.0683000816 -3.70734440853 0
495 1 1 -63.9022363301 -3.61502523163 0
496 1 1 -63.7399382598 -3.51623587802 0
497 1 1 -63.5774237904 -3.41780292001 0
498 1 1 -63.4195092092 -3.31214789151 0
499 1 1 -63.2711016971 -3.19350889979 0
500 1 1 -63.119381787 -3.07913639923 0
501 1 1 -62.9682650107 -2.96396817474 0
502 1 1 -62.8246691986 -2.83954855112 0
503 1 1 -62.6762580487 -2.7209141102 0
504 1 1 -62.5387686165 -2.58977808903 0
505 1 1 -62.3974383772 -2.46279083196 0
506 1 1 -62.2426638584 -2.35258716451 0
507 1 1 -62.0840854605 -2.2479311005 0
508 1 1 -61.916682566 -2.15806302561 0
509 1 1 -61.7442618576 -2.07824385908 0
510 1 1 -61.5666483644 -2.01076462511 0
511 1 1 -61.409274828 -1.90430538384 0
512 1 1 -61.2453233688 -1.80828497442 0
513 1 1 -61.0821601674 -1.71093113673 0
514 1 1 -60.91805165 -1.61517940311 0
515 1 1 -60.7553508294 -1.51705477318 0
516 1 1 -60.6074941182 -1.39773003578 0
517 1 1 -60.4630048968 -1.27434906118 0
518 1 1 -60.3069235353 -1.16600420168 0
519 1 1 -60.1429607225 -1.07000318068 0
520 1 1 -59.9692921584 -0.992936781769 0
521 1 1 -59.8023944375 -0.902133969224 0
522 1 1 -59.6568189898 -0.780036512208 0
523 1 1 -59.5247771374 -0.643416787319 0
524 1 1 -59.4161085901 -0.487560613806 0
525 1 1 -59.3043743009 -0.333887426111 0
526 1 1 -59.1923321329 -0.180438566295 0
527 1 1 -59.0796533222 -0.0274565882013 0
528 1 1 -58.9514206389 0.112744620597 0
529 1 1 -58.8263910248 0.2558096254 0
530 1 1 -58.705241193 0.402174642522 0
531 1 1 -58.5936024252 0.555917237598 0
532 1 1 -58.474979258 0.704337398637 0
533 1 1 -58.3494300297 0.846946624367 0
534 1 1 -58.208815054 0.974725451325 0
535 1 1 -58.0622696011 1.09565696178 0
536 1 1 -57.9310985505 1.23311297467 0
537 1 1 -57.8060846517 1.37619171218 0
538 1 1 -57.6913266547 1.52762025016 0
539 1 1 -57.555929504 1.6609154548 0
540 1 1 -57.4118966306 1.78482885756 0
541 1 1 -57.2799683493 1.92155825673 0
542 1 1 -57.1537370136 2.06356406607 0
543 1 1 -56.999239347 2.17415552598 0
544 1 1 -56.8645716853 2.30818768967 0
545 1 1 -56.7240402781 2.43605841964 0
546 1 1 -56.6049122656 2.58407367773 0
547 1 1 -56.484958902 2.7314208547 0
548 1 1 -56.3542185105 2.86928655039 0
549 1 1 -56.2275548875 3.01090691124 0
550 1 1 -56.0724926167 3.12070532729 0
551 1 1 -55.9162345092 3.22879512255 0
552 1 1 -55.7699655634 3.35006092772 0
553 1 1 -55.6221418344 3.46942652214 0
554 1 1 -55.4636004339 3.57413862424 0
555 1 1 -55.2993853156 3.66970742106 0
556 1 1 -55.1501523153 3.78730636505 0
557 1 1 -55.0264416046 3.93151336926 0
558 1 1 -54.8763500671 4.04801457252 0
559 1 1 -54.7160006287 4.1499363936 0
560 1 1 -54.5670757648 4.26792531219 0
561 1 1 -54.4206303828 4.38897798706 0
562 1 1 -54.2728568351 4.50840569991 0
563 1 1 -54.1481407207 4.65174407862 0
564 1 1 -54.0566936726 4.81828968014 0
565 1 1 -53.9756755768 4.99015028692 0
566 1 1 -53.8948093178 5.16208239024 0
567 1 1 -53.8238437315 5.33833188826 0
568 1 1 -53.7738139846 5.52162679935 0
569 1 1 -53.7131735853 5.70168996042 0
570 1 1 -53.6492678901 5.88062028796 0
571 1 1 -53.5921550276 6.06183320401 0
572 1 1 -53.5179825311 6.236757304 0
573 1 1 -53.4558947092 6.41632651731 0
574 1 1 -53.3937485459 6.59587554793 0
575 1 1 -53.3171732388 6.76976120672 0
576 1 1 -53.2247180132 6.93574925228 0
577 1 1 -53.1349031888 7.10318072278 0
578 1 1 -53.0414055547 7.26858384371 0
579 1 1 -52.9449153259 7.4322592412 0
580 1 1 -52.8338433285 7.58641180009 0
581 1 1 -52.7459782419 7.75487463444 0
582 1 1 -52.6763676663 7.93166368319 0
583 1 1 -52.5882797621 8.10001011511 0
584 1 1 -52.5203488019 8.27745132971 0
585 1 1 -52.4417796326 8.45044521874 0
586 1 1 -52.3393987938 8.61050197071 0
587 1 1 -52.2444593304 8.77508173337 0
588 1 1 -52.1468271736 8.93807854915 0
589 1 1 -52.0319806719 9.08943997443 0
590 1 1 -51.9048040793 9.23059986353 0
591 1 1 -51.7854682188 9.37844759732 0
592 1 1 -51.672195388 9.5309902661 0
593 1 1 -51.5405696314 9.66801092229 0
594 1 1 -51.3996010253 9.79539950923 0
595 1 1 -51.2640051788 9.9284925835 0
596 1 1 -51.1019844686 10.02773617 0
597 1 1 -50.9411242905 10.1288499827 0
598 1 1 -50.7759552555 10.2227605244 0
599 1 1 -50.6027794115 10.3009278262 0
600 1 1 -50.4271621451 10.3734438641 0
601 1 1 -50.254627814 10.4530171296 0
602 1 1 -50.0789961404 10.5254982665 0
603 1 1 -49.9076006018 10.6074956406 0
604 1 1 -49.7471612112 10.7092758055 0
605 1 1 -49.5985556604 10.8276666424 0
606 1 1 -49.4335586397 10.9218790788 0
607 1 1 -49.2529446738 10.9808586965 0
608 1 1 -49.0653962105 11.0112819426 0
609 1 1 -48.8769578957 11.0355924659 0
610 1 1 -48.6875427353 11.0504886732 0
611 1 1 -48.497696971 11.0581428079 0
612 1 1 -48.3108568255 11.0236354168 0
613 1 1 -48.1279230465 10.9723009012 0
614 1 1 -47.949326983 10.9074669124 0
615 1 1 -47.7856858284 10.8109186214 0
616 1 1 -47.6117064578 10.734556467 0
617 1 1 -47.4262648091 10.6931874576 0
618 1 1 -47.2407146484 10.6523079046 0
619 1 1 -47.0519675689 10.6305239658 0
620 1 1 -46.8651250251 10.5960295631 0
621 1 1 -46.6766014171 10.5723895708 0
622 1 1 -46.4879046471 10.5501740587 0
623 1 1 -46.299723435 10.5239475184 0
624 1 1 -46.1097338799 10.5259397388 0
625 1 1 -45.919981495 10.5356367712 0
626 1 1 -45.7299814999 10.535680077 0
627 1 1 -45.5409641911 10.5549792207 0
628 1 1 -45.3512863579 10.543919401 0
629 1 1 -45.1612887558 10.5429648326 0
630 1 1 -44.9717059544 10.5555490046 0
631 1 1 -44.7818542699 10.5630548625 0
632 1 1 -44.5919420559 10.5572798309 0
633 1 1 -44.4020719889 10.5643053302 0
634 1 1 -44.2130479807 10.545071913 0
635 1 1 -44.0234904868 10.5321121096 0
636 1 1 -43.8345152835 10.5124049402 0
637 1 1 -43.6489628265 10.471535811 0
638 1 1 -43.4600717725 10.4510377698 0
639 1 1 -43.271771972 10.4256766749 0
640 1 1 -43.0822896353 10.4116608234 0
641 1 1 -42.8922906956 10.4110260625 0
642 1 1 -42.7026987406 10.398580557 0
643 1 1 -42.5144744146 10.3726652511 0
644 1 1 -42.3255612105 10.3523723623 0
645 1 1 -42.1363564352 10.3350070815 0
646 1 1 -41.949575447 10.3001809068 0
647 1 1 -41.762011666 10.2698522394 0
648 1 1 -41.5768888087 10.2270792605 0
649 1 1 -41.3906980025 10.1892244898 0
650 1 1 -41.2070689793 10.1404353328 0
651 1 1 -41.0305466333 10.0701511855 0
652 1 1 -40.8570341521 9.99273401115 0
653 1 1 -40.6716515056 9.95110139922 0
654 1 1 -40.4837998337 9.92261018387 0
655 1 1 -40.3006933273 9.87189522247 0
656 1 1 -40.1164271295 9.82557062476 0
657 1 1 -39.9268715767 9.81258246074 0
658 1 1 -39.737861789 9.79320979605 0
659 1 1 -39.5493797072 9.76924096528 0
660 1 1 -39.3596776789 9.77987771654 0
661 1 1 -39.1713339146 9.80491022432 0
662 1 1 -38.9849168462 9.84163455683 0
663 1 1 -38.8034235828 9.89785017145 0
664 1 1 -38.6254760873 9.96444363111 0
665 1 1 -38.4464108133 10.0279702211 0
666 1 1 -38.2597414224 10.0633896861 0
667 1 1 -38.0748288907 10.1070629687 0
668 1 1 -37.8867611838 10.1340914283 0
669 1 1 -37.6986548574 10.1608497908 0
670 1 1 -37.5087928608 10.1680901109 0
671 1 1 -37.3190355909 10.1584891452 0
672 1 1 -37.1333225163 10.1183561924 0
673 1 1 -36.9450343662 10.0929087458 0
674 1 1 -36.7576203414 10.0616680144 0
675 1 1 -36.5769981125 10.0027137064 0
676 1 1 -36.3936938274 9.95271831601 0
677 1 1 -36.2037416962 9.94845359377 0
678 1 1 -36.0137801984 9.9522784286 0
679 1 1 -35.8267734101 9.98587100413 0
680 1 1 -35.6377855033 10.0054559748 0
681 1 1 -35.4485169117 10.0221113121 0
682 1 1 -35.2586323107 10.0154902633 0
683 1 1 -35.0696572259 10.0351985692 0
684 1 1 -34.8799637307 10.0459864276 0
685 1 1 -34.690226514 10.0559758511 0
686 1 1 -34.5003402905 10.0625502059 0
687 1 1 -34.3104062086 10.0675546568 0
688 1 1 -34.1204086924 10.0665831391 0
689 1 1 -33.9310728654 10.0507103764 0
690 1 1 -33.7423934338 10.0283480842 0
691 1 1 -33.5524213542 10.0250909423 0
692 1 1 -33.3629122517 10.0387401196 0
693 1 1 -33.1733646045 10.051843152 0
694 1 1 -32.9837242643 10.0635282436 0
695 1 1 -32.7997263242 10.1109071211 0
696 1 1 -32.6131322824 10.146721414 0
697 1 1 -32.4399623299 10.2249017666 0
698 1 1 -32.2911078388 10.3429794549 0
699 1 1 -32.1464100989 10.4661158186 0
700 1 1 -32.0112927152 10.5996946067 0
701 1 1 -31.8933097848 10.7486242147 0
702 1 1 -31.7523651613 10.8760393359 0
703 1 1 -31.6091100653 11.0008511041 0
704 1 1 -31.4414846996 11.0903035315 0
705 1 1 -31.2643643685 11.1590668089 0
706 1 1 -31.0886881637 11.2314399466 0
707 1 1 -30.9106703513 11.2978452058 0
708 1 1 -30.7466902974 11.3938167741 0
709 1 1 -30.5810966006 11.4869764627 0
710 1 1 -30.4089102824 11.5673000073 0
711 1 1 -30.2343832194 11.6424019666 0
712 1 1 -30.0728618927 11.742456257 0
713 1 1 -29.9073334445 11.8357318317 0
714 1 1 -29.7460349044 11.9361448834 0
715 1 1 -29.5962376344 12.053024214 0
716 1 1 -29.4555802926 12.1807564033 0
717 1 1 -29.3147074675 12.3082509018 0
718 1 1 -29.1748205835 12.4368264038 0
719 1 1 -29.0181979573 12.5443873304 0
720 1 1 -28.8781828037 12.6728231384 0
721 1 1 -28.7389103092 12.8020638915 0
722 1 1 -28.5908990368 12.9211968561 0
723 1 1 -28.4558140524 13.0548084087 0
724 1 1 -28.3209026922 13.1885952724 0
725 1 1 -28.1809191609 13.317065545 0
726 1 1 -28.0567108879 13.4608442114 0
727 1 1 -27.9143760758 13.5867044564 0
728 1 1 -27.7862112325 13.7269676837 0
729 1 1 -27.6470902616 13.8563715302 0
730 1 1 -27.5073745968 13.9851330656 0
731 1 1 -27.3705177614 14.1169291452 0
732 1 1 -27.2078322611 14.2150791732 0
733 1 1 -27.0562742345 14.3296661035 0
734 1 1 -26.9244833602 14.4665279515 0
735 1 1 -26.8028203635 14.6124666894 0
736 1 1 -26.6739387221 14.7520715694 0
737 1 1 -26.5474191149 14.8938206046 0
738 1 1 -26.4259115039 15.039888741 0
739 1 1 -26.3212490685 15.1984629338 0
740 1 1 -26.2365605946 15.3685448623 0
741 1 1 -26.1256018351 15.5227789496 0
742 1 1 -26.0153738991 15.6775361857 0
743 1 1 -25.923708372 15.8439616379 0
744 1 1 -25.8226013417 16.004826079 0
745 1 1 -25.704617965 16.1537553334 0
746 1 1 -25.5728887015 16.2906764828 0
747 1 1 -25.4252119348 16.4102238482 0
748 1 1 -25.2691810752 16.5186414245 0
749 1 1 -25.1161957995 16.6313157579 0
750 1 1 -24.9800290406 16.7638246775 0
751 1 1 -24.845574451 16.8980705838 0
752 1 1 -24.7057741019 17.0267401698 0
753 1 1 -24.5635157588 17.1526868403 0
754 1 1 -24.4200841692 17.277295745 0
755 1 1 -24.2732678854 17.3978983105 0
756 1 1 -24.120339473 17.5106498103 0
757 1 1 -23.9673243144 17.6232835585 0
758 1 1 -23.7946858467 17.7026306408 0
759 1 1 -23.6115453894 17.7532228622 0
760 1 1 -23.4264807173 17.7962468924 0
761 1 1 -23.2438897302 17.8487876521 0
762 1 1 -23.0567744292 17.8817704372 0