#Actin filament

10 atoms
9 bonds
8 angles

1 atom types
3 bond types
1 angle types

-500 500 xlo xhi
-500 500 ylo yhi
-0.05 0.05 zlo zhi

Masses

1 1


Atoms

1 1 1 -150 0 0
2 1 1 -131.041570129 -1.25615955628 0
3 1 1 -112.355130092 -4.69373991811 0
4 1 1 -93.3717183116 -5.4875139221 0
5 1 1 -74.4096827067 -4.28701164323 0
6 1 1 -55.4403863371 -3.20729166071 0
7 1 1 -36.5034730334 -1.66025755325 0
8 1 1 -17.6244182188 0.480137107899 0
9 1 1 1.19439594842 3.09781419646 0
10 1 1 20.1700982729 4.0583980261 0


Bonds

0 1 1 2
1 2 2 3
2 3 3 4
3 1 4 5
4 2 5 6
5 3 6 7
6 1 7 8
7 2 8 9
8 3 9 10


Angles

1 1 1 2 3
2 1 2 3 4
3 1 3 4 5
4 1 4 5 6
5 1 5 6 7
6 1 6 7 8
7 1 7 8 9
8 1 8 9 10
