#Actin filament

20 atoms
19 bonds
18 angles

1 atom types
3 bond types
1 angle types

-500 500 xlo xhi
-500 500 ylo yhi
-0.05 0.05 zlo zhi

Masses

1 1


Atoms

1 1 1 -150 0 0
2 1 1 -140.278769291 -0.748447390894 0
3 1 1 -130.640769814 -2.22203691472 0
4 1 1 -121.201739295 -4.66482279784 0
5 1 1 -111.829738818 -7.3533367087 0
6 1 1 -102.336855296 -9.57767086753 0
7 1 1 -93.0935535747 -12.6799076863 0
8 1 1 -83.6113251304 -14.9492343993 0
9 1 1 -74.1819148021 -17.4288958401 0
10 1 1 -64.6608040726 -19.5291221319 0
11 1 1 -55.0469202092 -21.1526174537 0
12 1 1 -45.6541268549 -23.7675616219 0
13 1 1 -36.8681089136 -27.9946633165 0
14 1 1 -28.3508117882 -32.739992565 0
15 1 1 -19.5978530008 -37.0351308011 0
16 1 1 -11.1410911368 -41.8875197773 0
17 1 1 -2.62986861639 -46.643735837 0
18 1 1 5.95225806285 -51.2707869132 0
19 1 1 14.953402137 -55.0180399546 0
20 1 1 24.106142855 -58.3780752743 0


Bonds

0 1 1 2
1 2 2 3
2 3 3 4
3 1 4 5
4 2 5 6
5 3 6 7
6 1 7 8
7 2 8 9
8 3 9 10
9 1 10 11
10 2 11 12
11 3 12 13
12 1 13 14
13 2 14 15
14 3 15 16
15 1 16 17
16 2 17 18
17 3 18 19
18 1 19 20


Angles

1 1 1 2 3
2 1 2 3 4
3 1 3 4 5
4 1 4 5 6
5 1 5 6 7
6 1 6 7 8
7 1 7 8 9
8 1 8 9 10
9 1 9 10 11
10 1 10 11 12
11 1 11 12 13
12 1 12 13 14
13 1 13 14 15
14 1 14 15 16
15 1 15 16 17
16 1 16 17 18
17 1 17 18 19
18 1 18 19 20
