#Actin filament

1818 atoms
1817 bonds
1816 angles

1 atom types
3 bond types
1 angle types

-500 500 xlo xhi
-500 500 ylo yhi
-0.05 0.05 zlo zhi

Masses

1 1


Atoms

1 1 1 -150 0 0
2 1 1 -149.890007347 0.00127133512098 0
3 1 1 -149.780080647 -0.00274372454526 0
4 1 1 -149.670778436 -0.0151141135566 0
5 1 1 -149.560813206 -0.0178796495758 0
6 1 1 -149.451150914 -0.0264925294689 0
7 1 1 -149.341565877 -0.0360381907545 0
8 1 1 -149.232561242 -0.0508026661796 0
9 1 1 -149.126485188 -0.0799208858043 0
10 1 1 -149.019146796 -0.103972278238 0
11 1 1 -148.912838018 -0.132229025963 0
12 1 1 -148.810327425 -0.172123617103 0
13 1 1 -148.714555615 -0.226232400025 0
14 1 1 -148.62589332 -0.291339983876 0
15 1 1 -148.5331269 -0.350453360838 0
16 1 1 -148.4366647 -0.403321534961 0
17 1 1 -148.336123763 -0.447947985847 0
18 1 1 -148.231030469 -0.480434897152 0
19 1 1 -148.121805629 -0.493470784601 0
20 1 1 -148.014105839 -0.515848344465 0
21 1 1 -147.906912842 -0.540539666767 0
22 1 1 -147.801269594 -0.571190998557 0
23 1 1 -147.698571168 -0.610599542001 0
24 1 1 -147.603575385 -0.666059448811 0
25 1 1 -147.507604918 -0.719815094875 0
26 1 1 -147.417438216 -0.782822760453 0
27 1 1 -147.326264334 -0.844363991693 0
28 1 1 -147.230965746 -0.899301948898 0
29 1 1 -147.138546365 -0.958956437776 0
30 1 1 -147.047942543 -1.02133389712 0
31 1 1 -146.957572139 -1.08404904682 0
32 1 1 -146.85945035 -1.13376941182 0
33 1 1 -146.772018882 -1.20052072901 0
34 1 1 -146.686232731 -1.2693737338 0
35 1 1 -146.617375589 -1.35515656456 0
36 1 1 -146.540561036 -1.43389362274 0
37 1 1 -146.48149117 -1.52668775469 0
38 1 1 -146.411250303 -1.61134128811 0
39 1 1 -146.335480898 -1.69108460885 0
40 1 1 -146.260158442 -1.77125023466 0
41 1 1 -146.181280044 -1.8479196441 0
42 1 1 -146.098451715 -1.92030381304 0
43 1 1 -146.011149592 -1.98722420825 0
44 1 1 -145.916654627 -2.04353319227 0
45 1 1 -145.824018204 -2.10285007982 0
46 1 1 -145.727211239 -2.15508427802 0
47 1 1 -145.631800283 -2.20982685351 0
48 1 1 -145.533738178 -2.25966482543 0
49 1 1 -145.441993331 -2.32035158724 0
50 1 1 -145.343057081 -2.36843088111 0
51 1 1 -145.238408356 -2.4023225375 0
52 1 1 -145.139649778 -2.45076573455 0
53 1 1 -145.039337884 -2.49590467369 0
54 1 1 -144.937462634 -2.5373948349 0
55 1 1 -144.840534811 -2.58940442089 0
56 1 1 -144.736729286 -2.62579690559 0
57 1 1 -144.634935798 -2.66748726277 0
58 1 1 -144.535172793 -2.71382669272 0
59 1 1 -144.443280137 -2.77428940742 0
60 1 1 -144.346478665 -2.82653378543 0
61 1 1 -144.248232653 -2.87600823522 0
62 1 1 -144.160772096 -2.94272143398 0
63 1 1 -144.066343624 -2.99914185301 0
64 1 1 -143.976541604 -3.06266820391 0
65 1 1 -143.906514553 -3.14749869428 0
66 1 1 -143.842439795 -3.23691024498 0
67 1 1 -143.765617697 -3.31563994177 0
68 1 1 -143.679443741 -3.38400696184 0
69 1 1 -143.600915798 -3.4610352821 0
70 1 1 -143.524883086 -3.54052758763 0
71 1 1 -143.449694194 -3.62081849964 0
72 1 1 -143.381291472 -3.70696411864 0
73 1 1 -143.330593134 -3.8045841908 0
74 1 1 -143.293891921 -3.90828096495 0
75 1 1 -143.257194089 -4.01197893584 0
76 1 1 -143.227264653 -4.11782896575 0
77 1 1 -143.204360541 -4.22541800637 0
78 1 1 -143.199367756 -4.33530463931 0
79 1 1 -143.222725851 -4.44279603161 0
80 1 1 -143.246298988 -4.55024046939 0
81 1 1 -143.265580584 -4.65853737626 0
82 1 1 -143.289700974 -4.7658602853 0
83 1 1 -143.297924069 -4.87555249427 0
84 1 1 -143.309029442 -4.98499047075 0
85 1 1 -143.321900808 -5.09423482044 0
86 1 1 -143.336038101 -5.20332256921 0
87 1 1 -143.348814002 -5.31257812444 0
88 1 1 -143.354606222 -5.42242551946 0
89 1 1 -143.350518442 -5.53234953894 0
90 1 1 -143.331435865 -5.64068169127 0
91 1 1 -143.311475392 -5.74885553073 0
92 1 1 -143.294018564 -5.85746151183 0
93 1 1 -143.265133531 -5.96360130128 0
94 1 1 -143.224655996 -6.06588311383 0
95 1 1 -143.19363931 -6.17141967224 0
96 1 1 -143.171047533 -6.27907473072 0
97 1 1 -143.157942724 -6.38829132272 0
98 1 1 -143.146161832 -6.49765864229 0
99 1 1 -143.135752753 -6.60716503968 0
100 1 1 -143.117331517 -6.71561160756 0
101 1 1 -143.101572061 -6.82447684328 0
102 1 1 -143.088652863 -6.93371554664 0
103 1 1 -143.080573426 -7.04341843037 0
104 1 1 -143.068929996 -7.15280046981 0
105 1 1 -143.050311834 -7.26121340266 0
106 1 1 -143.044720214 -7.37107119161 0
107 1 1 -143.028877004 -7.47992427003 0
108 1 1 -143.027307067 -7.58991306627 0
109 1 1 -143.013240513 -7.69900995926 0
110 1 1 -142.994670063 -7.80743107529 0
111 1 1 -142.979308521 -7.91635317144 0
112 1 1 -142.971085789 -8.02604540759 0
113 1 1 -142.961199385 -8.13560022952 0
114 1 1 -142.962215555 -8.24559553578 0
115 1 1 -142.950466692 -8.35496630076 0
116 1 1 -142.946117951 -8.46488030555 0
117 1 1 -142.947393485 -8.57487290991 0
118 1 1 -142.93975791 -8.68460758082 0
119 1 1 -142.942612795 -8.79457052746 0
120 1 1 -142.962200098 -8.90281255981 0
121 1 1 -142.981971683 -9.01102108264 0
122 1 1 -143.008300193 -9.11782374922 0
123 1 1 -143.037842032 -9.22378260796 0
124 1 1 -143.073493055 -9.3278451109 0
125 1 1 -143.099075938 -9.43482882983 0
126 1 1 -143.135762047 -9.53853094829 0
127 1 1 -143.169401524 -9.64326100913 0
128 1 1 -143.190498407 -9.75121897092 0
129 1 1 -143.204391117 -9.86033813788 0
130 1 1 -143.218194323 -9.96946866296 0
131 1 1 -143.217183072 -10.0794640145 0
132 1 1 -143.219955902 -10.1894290608 0
133 1 1 -143.220022487 -10.2994290407 0
134 1 1 -143.223362649 -10.4093783168 0
135 1 1 -143.21567863 -10.5191096061 0
136 1 1 -143.203886082 -10.6284756695 0
137 1 1 -143.187101663 -10.7371875975 0
138 1 1 -143.163926535 -10.8447185857 0
139 1 1 -143.155534535 -10.9543980019 0
140 1 1 -143.122905203 -11.0594471652 0
141 1 1 -143.085003911 -11.1627113507 0
142 1 1 -143.059938383 -11.2698174632 0
143 1 1 -143.038268313 -11.3776618328 0
144 1 1 -143.02160257 -11.4863920173 0
145 1 1 -143.008927571 -11.5956593244 0
146 1 1 -143.011166516 -11.7056365362 0
147 1 1 -143.004513798 -11.8154351762 0
148 1 1 -142.987914064 -11.9241754578 0
149 1 1 -142.966045924 -12.0319798381 0
150 1 1 -142.931722207 -12.1364876488 0
151 1 1 -142.891831424 -12.2389997232 0
152 1 1 -142.851073256 -12.3411700309 0
153 1 1 -142.801579835 -12.4394064868 0
154 1 1 -142.753575231 -12.5383789978 0
155 1 1 -142.689924827 -12.6280931332 0
156 1 1 -142.619100303 -12.7122589626 0
157 1 1 -142.542686982 -12.7913854715 0
158 1 1 -142.476035017 -12.8788927031 0
159 1 1 -142.404625062 -12.9625624009 0
160 1 1 -142.349173412 -13.0575630033 0
161 1 1 -142.303652942 -13.1577023402 0
162 1 1 -142.255274155 -13.2564924866 0
163 1 1 -142.216459656 -13.359416899 0
164 1 1 -142.198300583 -13.4679076731 0
165 1 1 -142.162073766 -13.5717711303 0
166 1 1 -142.109237895 -13.6682510284 0
167 1 1 -142.045159035 -13.7576596392 0
168 1 1 -141.977758168 -13.8445913544 0
169 1 1 -141.911546463 -13.9324321767 0
170 1 1 -141.838192964 -14.0144032947 0
171 1 1 -141.760368341 -14.0921421402 0
172 1 1 -141.688847523 -14.1757170926 0
173 1 1 -141.617154862 -14.2591446798 0
174 1 1 -141.564532337 -14.3557411075 0
175 1 1 -141.51535443 -14.4541358913 0
176 1 1 -141.450933932 -14.5432986608 0
177 1 1 -141.394097742 -14.6374774669 0
178 1 1 -141.328453201 -14.7257429424 0
179 1 1 -141.25051474 -14.8033676566 0
180 1 1 -141.176649177 -14.8848776481 0
181 1 1 -141.099823834 -14.9636041789 0
182 1 1 -141.017386801 -15.0364336756 0
183 1 1 -140.932974167 -15.1069638623 0
184 1 1 -140.848297975 -15.1771774117 0
185 1 1 -140.768873087 -15.2532805465 0
186 1 1 -140.684924136 -15.3243620041 0
187 1 1 -140.588963843 -15.3781358097 0
188 1 1 -140.487862178 -15.4214769381 0
189 1 1 -140.391023207 -15.4736517742 0
190 1 1 -140.295582159 -15.528341868 0
191 1 1 -140.197483041 -15.5781069465 0
192 1 1 -140.104488165 -15.636860271 0
193 1 1 -140.015152171 -15.7010403319 0
194 1 1 -139.919658156 -15.7556378868 0
195 1 1 -139.822614357 -15.8074307548 0
196 1 1 -139.728121818 -15.8637438083 0
197 1 1 -139.640597033 -15.9303727211 0
198 1 1 -139.55422337 -15.9984872595 0
199 1 1 -139.470712184 -16.0700825229 0
200 1 1 -139.388742681 -16.1434378272 0
201 1 1 -139.299829611 -16.2082025238 0
202 1 1 -139.212797094 -16.2754731784 0
203 1 1 -139.126850265 -16.3441255101 0
204 1 1 -139.03615536 -16.4063704629 0
205 1 1 -138.952772684 -16.4781153539 0
206 1 1 -138.87097238 -16.5516592885 0
207 1 1 -138.795699351 -16.6318713266 0
208 1 1 -138.725691274 -16.716717477 0
209 1 1 -138.655786543 -16.8016487936 0
210 1 1 -138.59444814 -16.8929592549 0
211 1 1 -138.539291877 -16.9881316594 0
212 1 1 -138.484968356 -17.0837818297 0
213 1 1 -138.441659281 -17.1848972293 0
214 1 1 -138.388978391 -17.2814618391 0
215 1 1 -138.33358838 -17.3764983932 0
216 1 1 -138.284066984 -17.4747207499 0
217 1 1 -138.232275431 -17.5717652503 0
218 1 1 -138.183644987 -17.6704317589 0
219 1 1 -138.132566222 -17.767853316 0
220 1 1 -138.101160845 -17.8732748616 0
221 1 1 -138.056352062 -17.9737346694 0
222 1 1 -138.014661812 -18.0755282007 0
223 1 1 -137.988578421 -18.1823909946 0
224 1 1 -137.971808019 -18.2911050858 0
225 1 1 -137.952226015 -18.3993480769 0
226 1 1 -137.938733567 -18.5085174584 0
227 1 1 -137.927900994 -18.6179827742 0
228 1 1 -137.903371418 -18.7252129001 0
229 1 1 -137.886747815 -18.8339495352 0
230 1 1 -137.87718594 -18.9435331588 0
231 1 1 -137.876336763 -19.053529881 0
232 1 1 -137.885242027 -19.1631688169 0
233 1 1 -137.879691213 -19.2730286753 0
234 1 1 -137.881881159 -19.3830068737 0
235 1 1 -137.889536595 -19.4927401609 0
236 1 1 -137.891022591 -19.6027301232 0
237 1 1 -137.900053886 -19.7123587496 0
238 1 1 -137.918309895 -19.8208332541 0
239 1 1 -137.948150665 -19.9267083145 0
240 1 1 -137.972004907 -20.0340906927 0
241 1 1 -137.991309991 -20.1423834151 0
242 1 1 -138.009756866 -20.2508256247 0
243 1 1 -138.02830135 -20.3592511849 0
244 1 1 -138.056426626 -20.4655948205 0
245 1 1 -138.089175628 -20.5706067382 0
246 1 1 -138.105210942 -20.6794316835 0
247 1 1 -138.111451544 -20.7892545176 0
248 1 1 -138.11132778 -20.8992544479 0
249 1 1 -138.090739727 -21.0073106003 0
250 1 1 -138.062068991 -21.1135084765 0
251 1 1 -138.038117576 -21.2208692224 0
252 1 1 -138.011237543 -21.3275344174 0
253 1 1 -137.985976933 -21.4345946881 0
254 1 1 -137.956850003 -21.540668351 0
255 1 1 -137.926315003 -21.646345282 0
256 1 1 -137.904160689 -21.7540912163 0
257 1 1 -137.881104199 -21.8616477052 0
258 1 1 -137.877866104 -21.9716000345 0
259 1 1 -137.873329913 -22.0815064628 0
260 1 1 -137.883524387 -22.1910330472 0
261 1 1 -137.908172781 -22.2982359234 0
262 1 1 -137.922640136 -22.4072803898 0
263 1 1 -137.933737269 -22.5167192022 0
264 1 1 -137.944257386 -22.6262149881 0
265 1 1 -137.960083881 -22.735070498 0
266 1 1 -137.979094825 -22.8434152441 0
267 1 1 -138.01379267 -22.9477994362 0
268 1 1 -138.057602157 -23.0486990341 0
269 1 1 -138.08910539 -23.1540913788 0
270 1 1 -138.12347355 -23.2585845823 0
271 1 1 -138.155788587 -23.3637308536 0
272 1 1 -138.181650155 -23.4706475468 0
273 1 1 -138.214812759 -23.5755295838 0
274 1 1 -138.253647151 -23.6784464922 0
275 1 1 -138.285353784 -23.7837778237 0
276 1 1 -138.330451327 -23.8841083357 0
277 1 1 -138.387440168 -23.9781948495 0
278 1 1 -138.439559702 -24.0750635966 0
279 1 1 -138.480466978 -24.1771742949 0
280 1 1 -138.506202062 -24.2841215038 0
281 1 1 -138.54065705 -24.388586109 0
282 1 1 -138.574359872 -24.493295802 0
283 1 1 -138.593879318 -24.6015500916 0
284 1 1 -138.610023578 -24.710358928 0
285 1 1 -138.604388168 -24.8202144793 0
286 1 1 -138.601555249 -24.930177994 0
287 1 1 -138.5933216 -25.0398694113 0
288 1 1 -138.571680958 -25.14771969 0
289 1 1 -138.561211047 -25.2572202879 0
290 1 1 -138.567836646 -25.3670205677 0
291 1 1 -138.577248905 -25.4766171433 0
292 1 1 -138.585735142 -25.5862893083 0
293 1 1 -138.606026039 -25.6944016549 0
294 1 1 -138.609817052 -25.8043363092 0
295 1 1 -138.628787133 -25.9126882175 0
296 1 1 -138.638762586 -26.022234967 0
297 1 1 -138.649989456 -26.1316605463 0
298 1 1 -138.65855816 -26.241326299 0
299 1 1 -138.693436367 -26.3456503645 0
300 1 1 -138.723476198 -26.4514691178 0
301 1 1 -138.746941267 -26.5589372085 0
302 1 1 -138.781288055 -26.6634374391 0
303 1 1 -138.819503208 -26.7665858859 0
304 1 1 -138.857953159 -26.8696470389 0
305 1 1 -138.903372462 -26.9698323018 0
306 1 1 -138.950123418 -27.0694031214 0
307 1 1 -139.005660142 -27.1643540157 0
308 1 1 -139.05987536 -27.2600656145 0
309 1 1 -139.114224069 -27.3557014747 0
310 1 1 -139.177691556 -27.4455451065 0
311 1 1 -139.251072879 -27.527491317 0
312 1 1 -139.324584586 -27.6093205843 0
313 1 1 -139.412779343 -27.6750601061 0
314 1 1 -139.500780404 -27.7410586922 0
315 1 1 -139.589564394 -27.8060002286 0
316 1 1 -139.67867199 -27.8704970206 0
317 1 1 -139.770127457 -27.9316190102 0
318 1 1 -139.863597759 -27.9896129977 0
319 1 1 -139.957363629 -28.0471278796 0
320 1 1 -140.045186465 -28.1133634411 0
321 1 1 -140.131091531 -28.1820680224 0
322 1 1 -140.215750266 -28.2523026198 0
323 1 1 -140.302691452 -28.3196912694 0
324 1 1 -140.376491525 -28.4012605603 0
325 1 1 -140.457541766 -28.4756303026 0
326 1 1 -140.537872915 -28.5507762039 0
327 1 1 -140.616249822 -28.6279581989 0
328 1 1 -140.690176812 -28.7094124822 0
329 1 1 -140.770807843 -28.7842365212 0
330 1 1 -140.858606824 -28.8505036989 0
331 1 1 -140.95589069 -28.9018442228 0
332 1 1 -141.052367659 -28.9546854433 0
333 1 1 -141.15019758 -29.0049776542 0
334 1 1 -141.251644977 -29.0475032425 0
335 1 1 -141.350477987 -29.0957944023 0
336 1 1 -141.453963349 -29.1330875624 0
337 1 1 -141.554985062 -29.176614721 0
338 1 1 -141.654694239 -29.2230698619 0
339 1 1 -141.752522799 -29.2733647212 0
340 1 1 -141.858739514 -29.3019655849 0
341 1 1 -141.967483985 -29.3185378473 0
342 1 1 -142.076706967 -29.3315892961 0
343 1 1 -142.186305842 -29.340974739 0
344 1 1 -142.296305787 -29.3408644225 0
345 1 1 -142.406074262 -29.3337312672 0
346 1 1 -142.516054374 -29.3358229146 0
347 1 1 -142.625852408 -29.3424856229 0
348 1 1 -142.735672626 -29.3487720995 0
349 1 1 -142.845651124 -29.350946945 0
350 1 1 -142.95556617 -29.3466245962 0
351 1 1 -143.062687871 -29.3216257728 0
352 1 1 -143.170323355 -29.2989409185 0
353 1 1 -143.278125043 -29.2770595103 0
354 1 1 -143.387029909 -29.261576288 0
355 1 1 -143.496182693 -29.2479502256 0
356 1 1 -143.604028283 -29.2262862298 0
357 1 1 -143.712082662 -29.2056888711 0
358 1 1 -143.821122706 -29.1911882188 0
359 1 1 -143.930912117 -29.1843848875 0
360 1 1 -144.040883191 -29.181862425 0
361 1 1 -144.150576576 -29.1736550344 0
362 1 1 -144.259854823 -29.1610747017 0
363 1 1 -144.364388561 -29.12683003 0
364 1 1 -144.463641695 -29.0794083541 0
365 1 1 -144.567106184 -29.0420573234 0
366 1 1 -144.671265807 -29.0066910524 0
367 1 1 -144.776003122 -28.9730741701 0
368 1 1 -144.88429931 -28.9537885383 0
369 1 1 -144.991559664 -28.9293914778 0
370 1 1 -145.096143289 -28.8952994661 0
371 1 1 -145.201244183 -28.8628371466 0
372 1 1 -145.305822825 -28.82872985 0
373 1 1 -145.409962236 -28.7933041102 0
374 1 1 -145.51385673 -28.7571664007 0
375 1 1 -145.615423239 -28.7149260844 0
376 1 1 -145.709477192 -28.6578835219 0
377 1 1 -145.812849861 -28.6202791168 0
378 1 1 -145.918020885 -28.5880447312 0
379 1 1 -146.02468062 -28.5611430389 0
380 1 1 -146.134417772 -28.5535432141 0
381 1 1 -146.244264773 -28.5477435152 0
382 1 1 -146.353255673 -28.5626090357 0
383 1 1 -146.462658193 -28.5740584263 0
384 1 1 -146.569511988 -28.6001786588 0
385 1 1 -146.672183064 -28.6396584011 0
386 1 1 -146.76813453 -28.693447956 0
387 1 1 -146.874190456 -28.7226394024 0
388 1 1 -146.976593356 -28.7628096176 0
389 1 1 -147.077557732 -28.806469607 0
390 1 1 -147.178504783 -28.8501696394 0
391 1 1 -147.279379948 -28.8940353575 0
392 1 1 -147.385677701 -28.9223335486 0
393 1 1 -147.488011105 -28.9626804744 0
394 1 1 -147.590823025 -29.0017919715 0
395 1 1 -147.697183628 -29.029853015 0
396 1 1 -147.804347306 -29.0546712758 0
397 1 1 -147.913759251 -29.0660302518 0
398 1 1 -148.021923556 -29.0860423247 0
399 1 1 -148.124017445 -29.1269915353 0
400 1 1 -148.229426738 -29.1584380119 0
401 1 1 -148.333287881 -29.1946714635 0
402 1 1 -148.437341931 -29.230347151 0
403 1 1 -148.534810011 -29.2813370853 0
404 1 1 -148.629766362 -29.3368644782 0
405 1 1 -148.717971284 -29.4025903615 0
406 1 1 -148.810923263 -29.4614115278 0
407 1 1 -148.904469496 -29.5192829572 0
408 1 1 -148.994625981 -29.5823052405 0
409 1 1 -149.094374348 -29.6286761709 0
410 1 1 -149.198579834 -29.6639070773 0
411 1 1 -149.301708953 -29.702174358 0
412 1 1 -149.408039741 -29.7303481675 0
413 1 1 -149.510401664 -29.7706226855 0
414 1 1 -149.613839739 -29.8080468034 0
415 1 1 -149.716860095 -29.8466059289 0
416 1 1 -149.823801034 -29.8723670556 0
417 1 1 -149.927782426 -29.9082539623 0
418 1 1 -150.033433085 -29.9388797416 0
419 1 1 -150.14343202 -29.9393636873 0
420 1 1 -150.251349197 -29.9606682159 0
421 1 1 -150.355280636 -29.9966995345 0
422 1 1 -150.463585213 -30.0159380023 0
423 1 1 -150.573563546 -30.0181211943 0
424 1 1 -150.682609919 -30.0325741669 0
425 1 1 -150.792555081 -30.0360471235 0
426 1 1 -150.90191996 -30.0478506474 0
427 1 1 -151.010560172 -30.0650931623 0
428 1 1 -151.110533251 -30.1109776199 0
429 1 1 -151.200928035 -30.1736576258 0
430 1 1 -151.290563841 -30.2374182898 0
431 1 1 -151.386074569 -30.2919866026 0
432 1 1 -151.486131729 -30.3376874201 0
433 1 1 -151.572666967 -30.4055965706 0
434 1 1 -151.652608132 -30.481157209 0
435 1 1 -151.726421068 -30.5627148601 0
436 1 1 -151.803063174 -30.6416197876 0
437 1 1 -151.887418106 -30.7122189762 0
438 1 1 -151.949182187 -30.803242041 0
439 1 1 -152.011972551 -30.8935602018 0
440 1 1 -152.092926461 -30.968034791 0
441 1 1 -152.172734702 -31.043735813 0
442 1 1 -152.253690462 -31.1182083906 0
443 1 1 -152.333384131 -31.1940300183 0
444 1 1 -152.421244621 -31.260215623 0
445 1 1 -152.505769729 -31.3306109782 0
446 1 1 -152.593173628 -31.3973983912 0
447 1 1 -152.669982259 -31.4761412269 0
448 1 1 -152.730457402 -31.568025704 0
449 1 1 -152.774285896 -31.6689170471 0
450 1 1 -152.799124682 -31.7760759696 0
451 1 1 -152.817295734 -31.884564738 0
452 1 1 -152.844905354 -31.9910434161 0
453 1 1 -152.866600381 -32.0988827681 0
454 1 1 -152.879079401 -32.2081726306 0
455 1 1 -152.890555309 -32.3175723726 0
456 1 1 -152.898844469 -32.427259609 0
457 1 1 -152.89600646 -32.5372229925 0
458 1 1 -152.889408564 -32.6470249404 0
459 1 1 -152.893429756 -32.7569514159 0
460 1 1 -152.886416579 -32.8667276217 0
461 1 1 -152.878735016 -32.976459083 0
462 1 1 -152.905786655 -33.0830808858 0
463 1 1 -152.91754751 -33.1924503618 0
464 1 1 -152.942505523 -33.2995815785 0
465 1 1 -152.976878834 -33.4040730877 0
466 1 1 -153.001626177 -33.5112531653 0
467 1 1 -153.039400628 -33.6145638175 0
468 1 1 -153.087589931 -33.713446531 0
469 1 1 -153.141277837 -33.8094549098 0
470 1 1 -153.212325794 -33.8934322151 0
471 1 1 -153.281409926 -33.9790323474 0
472 1 1 -153.358656412 -34.0573456945 0
473 1 1 -153.445546584 -34.1248001096 0
474 1 1 -153.533940146 -34.1902720741 0
475 1 1 -153.61686653 -34.262543886 0
476 1 1 -153.703048917 -34.3309002776 0
477 1 1 -153.782497737 -34.4069784284 0
478 1 1 -153.861062774 -34.4839689143 0
479 1 1 -153.954388963 -34.5421945316 0
480 1 1 -154.053066825 -34.5908019321 0
481 1 1 -154.148899977 -34.6448019968 0
482 1 1 -154.246758285 -34.6950389509 0
483 1 1 -154.347677679 -34.7388028181 0
484 1 1 -154.45186339 -34.7740921584 0
485 1 1 -154.54923846 -34.8252594887 0
486 1 1 -154.652973928 -34.8618511911 0
487 1 1 -154.757103524 -34.8973057718 0
488 1 1 -154.865085271 -34.9182805717 0
489 1 1 -154.974401716 -34.9305245491 0
490 1 1 -155.084346491 -34.9340097137 0
491 1 1 -155.193986636 -34.9251193455 0
492 1 1 -155.301410093 -34.9487879087 0
493 1 1 -155.405307951 -34.9849159474 0
494 1 1 -155.507063764 -35.0266981731 0
495 1 1 -155.60685987 -35.0729662759 0
496 1 1 -155.707346967 -35.1177138258 0
497 1 1 -155.803913552 -35.1703910957 0
498 1 1 -155.895475786 -35.2313530284 0
499 1 1 -155.989790436 -35.2879635109 0
500 1 1 -156.081982105 -35.3479693134 0
501 1 1 -156.177514525 -35.4024996406 0
502 1 1 -156.265870047 -35.468022933 0
503 1 1 -156.35549158 -35.5318036575 0
504 1 1 -156.437271844 -35.6053698755 0
505 1 1 -156.518996958 -35.6789973549 0
506 1 1 -156.596098596 -35.7574533131 0
507 1 1 -156.674829443 -35.8342742331 0
508 1 1 -156.750731894 -35.9138909263 0
509 1 1 -156.830986383 -35.9891186939 0
510 1 1 -156.913135962 -36.0622722767 0
511 1 1 -156.990045405 -36.1409166514 0
512 1 1 -157.064443282 -36.2219410665 0
513 1 1 -157.131559527 -36.3090927143 0
514 1 1 -157.175646142 -36.4098715331 0
515 1 1 -157.215382924 -36.5124434017 0
516 1 1 -157.270790091 -36.6074699547 0
517 1 1 -157.329930254 -36.7002193006 0
518 1 1 -157.377662683 -36.7993233632 0
519 1 1 -157.435863976 -36.892664723 0
520 1 1 -157.499763793 -36.9822013826 0
521 1 1 -157.548085995 -37.0810192191 0
522 1 1 -157.601642758 -37.1771008153 0
523 1 1 -157.669012705 -37.2640564947 0
524 1 1 -157.725259524 -37.3585884754 0
525 1 1 -157.768526708 -37.4597218073 0
526 1 1 -157.788104914 -37.5679654854 0
527 1 1 -157.806717731 -37.6763793362 0
528 1 1 -157.843927209 -37.7798948166 0
529 1 1 -157.880162765 -37.8837552253 0
530 1 1 -157.917582241 -37.9871949798 0
531 1 1 -157.94210426 -38.0944268342 0
532 1 1 -157.969119365 -38.2010578995 0
533 1 1 -157.991110509 -38.3088372555 0
534 1 1 -158.024386862 -38.4136832587 0
535 1 1 -158.041716046 -38.5223096798 0
536 1 1 -158.079968214 -38.6254444055 0
537 1 1 -158.110342409 -38.7311676682 0
538 1 1 -158.144779832 -38.8356380653 0
539 1 1 -158.197202615 -38.9323430387 0
540 1 1 -158.246981815 -39.0304349919 0
541 1 1 -158.294373528 -39.1297024361 0
542 1 1 -158.349483857 -39.224901447 0
543 1 1 -158.405567645 -39.3195302411 0
544 1 1 -158.46732409 -39.4105584867 0
545 1 1 -158.519314264 -39.507496724 0
546 1 1 -158.566553327 -39.6068369017 0
547 1 1 -158.617330082 -39.7044162085 0
548 1 1 -158.66336708 -39.8043191356 0
549 1 1 -158.713842909 -39.902054445 0
550 1 1 -158.755715864 -40.0037729569 0
551 1 1 -158.785556694 -40.1096480005 0
552 1 1 -158.812588691 -40.2162747849 0
553 1 1 -158.828078527 -40.3251787102 0
554 1 1 -158.856932322 -40.4313269957 0
555 1 1 -158.890138647 -40.5361951988 0
556 1 1 -158.910377103 -40.6443173746 0
557 1 1 -158.946945007 -40.7480612343 0
558 1 1 -158.9871825 -40.8504377164 0
559 1 1 -159.016192258 -40.9565434843 0
560 1 1 -159.038074901 -41.0643449217 0
561 1 1 -159.056440966 -41.1728008467 0
562 1 1 -159.08032943 -41.2801756171 0
563 1 1 -159.10391986 -41.3876162593 0
564 1 1 -159.131328083 -41.4941469557 0
565 1 1 -159.17363425 -41.5956860531 0
566 1 1 -159.220588553 -41.6951611426 0
567 1 1 -159.272928231 -41.7919111197 0
568 1 1 -159.331488382 -41.8850277605 0
569 1 1 -159.391458128 -41.9772428867 0
570 1 1 -159.457796453 -42.0649881235 0
571 1 1 -159.527650314 -42.1499612848 0
572 1 1 -159.596410319 -42.235821996 0
573 1 1 -159.655826524 -42.3283947489 0
574 1 1 -159.708271111 -42.4250878994 0
575 1 1 -159.780364839 -42.5081691509 0
576 1 1 -159.861395773 -42.5825599283 0
577 1 1 -159.941632163 -42.6578069994 0
578 1 1 -160.028197859 -42.7256773182 0
579 1 1 -160.101784706 -42.8074390207 0
580 1 1 -160.172715529 -42.8915152853 0
581 1 1 -160.248355866 -42.971381044 0
582 1 1 -160.337500112 -43.035827173 0
583 1 1 -160.431986779 -43.0921500788 0
584 1 1 -160.525909989 -43.1494076594 0
585 1 1 -160.619236457 -43.2076328297 0
586 1 1 -160.70105285 -43.281158865 0
587 1 1 -160.783438833 -43.3540461054 0
588 1 1 -160.866587487 -43.4260620848 0
589 1 1 -160.940115485 -43.5078767141 0
590 1 1 -161.009642469 -43.5931175399 0
591 1 1 -161.082858122 -43.6752118045 0
592 1 1 -161.150402827 -43.7620318067 0
593 1 1 -161.210990088 -43.8538423932 0
594 1 1 -161.26926298 -43.947139071 0
595 1 1 -161.346364395 -44.0255952483 0
596 1 1 -161.427341698 -44.1000444015 0
597 1 1 -161.510210505 -44.1723822253 0
598 1 1 -161.589062978 -44.2490782985 0
599 1 1 -161.646432883 -44.342932941 0
600 1 1 -161.699629696 -44.4392142951 0
601 1 1 -161.752266567 -44.5358029062 0
602 1 1 -161.800860528 -44.6344873881 0
603 1 1 -161.833920146 -44.7394019326 0
604 1 1 -161.883896358 -44.837393658 0
605 1 1 -161.931756723 -44.9364359997 0
606 1 1 -161.980746738 -45.0349244681 0
607 1 1 -162.025636593 -45.1353480753 0
608 1 1 -162.08317252 -45.2291010335 0
609 1 1 -162.133701536 -45.3268088557 0
610 1 1 -162.192888523 -45.4195283284 0
611 1 1 -162.261090008 -45.5058333537 0
612 1 1 -162.325542848 -45.5949727467 0
613 1 1 -162.392219071 -45.6824614961 0
614 1 1 -162.459162332 -45.7697460874 0
615 1 1 -162.528710613 -45.8549695385 0
616 1 1 -162.602996342 -45.9360967865 0
617 1 1 -162.67185855 -46.0218755507 0
618 1 1 -162.729192116 -46.1157523966 0
619 1 1 -162.796569515 -46.2027023023 0
620 1 1 -162.853807024 -46.2966377461 0
621 1 1 -162.91616853 -46.3872525492 0
622 1 1 -162.97584391 -46.4796584418 0
623 1 1 -163.043837107 -46.566127657 0
624 1 1 -163.113038861 -46.6516327282 0
625 1 1 -163.19267137 -46.7275185872 0
626 1 1 -163.273401838 -46.8022353286 0
627 1 1 -163.355882711 -46.875015172 0
628 1 1 -163.430199023 -46.9561144064 0
629 1 1 -163.496319133 -47.0440241955 0
630 1 1 -163.558763271 -47.134582076 0
631 1 1 -163.62922048 -47.2190556318 0
632 1 1 -163.707937238 -47.2958909888 0
633 1 1 -163.803411517 -47.3505230479 0
634 1 1 -163.895729363 -47.4103345464 0
635 1 1 -163.998655653 -47.4491440654 0
636 1 1 -164.106815282 -47.4691813996 0
637 1 1 -164.21498171 -47.4891819939 0
638 1 1 -164.32286521 -47.5106564091 0
639 1 1 -164.429961073 -47.5357656907 0
640 1 1 -164.535405362 -47.5670946225 0
641 1 1 -164.64358877 -47.5870031691 0
642 1 1 -164.751568386 -47.6079889398 0
643 1 1 -164.859611918 -47.6286431204 0
644 1 1 -164.969072586 -47.6395225556 0
645 1 1 -165.078301728 -47.6525223445 0
646 1 1 -165.188134633 -47.6464615562 0
647 1 1 -165.297277215 -47.632754014 0
648 1 1 -165.406539646 -47.6200370495 0
649 1 1 -165.515917601 -47.6083553123 0
650 1 1 -165.625914708 -47.6091530303 0
651 1 1 -165.735254556 -47.6211862264 0
652 1 1 -165.844156206 -47.6056804047 0
653 1 1 -165.953606225 -47.5946943529 0
654 1 1 -166.063272256 -47.5861292125 0
655 1 1 -166.173243476 -47.5836131063 0
656 1 1 -166.283217776 -47.5812354471 0
657 1 1 -166.392760674 -47.5912531145 0
658 1 1 -166.502297085 -47.6013414521 0
659 1 1 -166.61204019 -47.6088548406 0
660 1 1 -166.721927698 -47.6038813545 0
661 1 1 -166.831926546 -47.6043846394 0
662 1 1 -166.940957893 -47.5898187364 0
663 1 1 -167.048592102 -47.5671278369 0
664 1 1 -167.158551357 -47.5641341319 0
665 1 1 -167.268263228 -47.5561776645 0
666 1 1 -167.37406268 -47.5260699239 0
667 1 1 -167.474720595 -47.4817079569 0
668 1 1 -167.569992695 -47.4267240778 0
669 1 1 -167.667893099 -47.3765692079 0
670 1 1 -167.767352036 -47.3295807005 0
671 1 1 -167.862897108 -47.2750725444 0
672 1 1 -167.961315731 -47.2259423636 0
673 1 1 -168.062602654 -47.1830359629 0
674 1 1 -168.15983383 -47.1315957205 0
675 1 1 -168.252970792 -47.0730678957 0
676 1 1 -168.330313945 -46.9948500161 0
677 1 1 -168.41564711 -46.9254363946 0
678 1 1 -168.500836852 -46.8558468274 0
679 1 1 -168.588479908 -46.789373563 0
680 1 1 -168.679285232 -46.7272898042 0
681 1 1 -168.759182957 -46.6516832335 0
682 1 1 -168.839394248 -46.576409408 0
683 1 1 -168.929882371 -46.5138642287 0
684 1 1 -169.02881858 -46.4657848501 0
685 1 1 -169.1262332 -46.4146928569 0
686 1 1 -169.229708424 -46.3773715755 0
687 1 1 -169.334431413 -46.3437100916 0
688 1 1 -169.437247741 -46.3046101846 0
689 1 1 -169.540957402 -46.2679454029 0
690 1 1 -169.6434158 -46.2279169532 0
691 1 1 -169.742270153 -46.1796694989 0
692 1 1 -169.845118931 -46.1406550289 0
693 1 1 -169.950390419 -46.1087502681 0
694 1 1 -170.056281355 -46.0789658826 0
695 1 1 -170.165559714 -46.066386523 0
696 1 1 -170.273988147 -46.0478588405 0
697 1 1 -170.383454362 -46.0370353634 0
698 1 1 -170.493051286 -46.0276271593 0
699 1 1 -170.601487424 -46.0091446285 0
700 1 1 -170.709875126 -45.990380135 0
701 1 1 -170.815893337 -45.9610520099 0
702 1 1 -170.923164694 -45.9367033765 0
703 1 1 -171.030845188 -45.9142331483 0
704 1 1 -171.139000025 -45.8941699654 0
705 1 1 -171.242344338 -45.8564877024 0
706 1 1 -171.346907735 -45.8223337004 0
707 1 1 -171.451927759 -45.7896107012 0
708 1 1 -171.559593534 -45.767070053 0
709 1 1 -171.667825936 -45.7474296049 0
710 1 1 -171.774832009 -45.7219403844 0
711 1 1 -171.881658427 -45.6957084097 0
712 1 1 -171.988457599 -45.6693657288 0
713 1 1 -172.095234646 -45.6429335113 0
714 1 1 -172.203051256 -45.6211257462 0
715 1 1 -172.309935289 -45.5951295239 0
716 1 1 -172.41560201 -45.5645592118 0
717 1 1 -172.52175938 -45.5357388588 0
718 1 1 -172.631691986 -45.5318888862 0
719 1 1 -172.740076184 -45.5131041677 0
720 1 1 -172.849257081 -45.4997052247 0
721 1 1 -172.957133162 -45.4781935752 0
722 1 1 -173.064443532 -45.4540174617 0
723 1 1 -173.173389408 -45.4388254871 0
724 1 1 -173.283002643 -45.4296092623 0
725 1 1 -173.392986778 -45.4314774428 0
726 1 1 -173.502904383 -45.4357342167 0
727 1 1 -173.612888156 -45.4376235391 0
728 1 1 -173.722859015 -45.4401553712 0
729 1 1 -173.831075709 -45.4598821854 0
730 1 1 -173.936680625 -45.4906653247 0
731 1 1 -174.041283153 -45.5246992959 0
732 1 1 -174.149764147 -45.5429167043 0
733 1 1 -174.259653641 -45.5478461204 0
734 1 1 -174.368924762 -45.5604881982 0
735 1 1 -174.474255503 -45.5921967926 0
736 1 1 -174.583749793 -45.6027324642 0
737 1 1 -174.692661226 -45.6181694301 0
738 1 1 -174.800955187 -45.6374675641 0
739 1 1 -174.907779025 -45.6637100395 0
740 1 1 -175.010569315 -45.7028783473 0
741 1 1 -175.104103058 -45.7607699605 0
742 1 1 -175.209145246 -45.7934217426 0
743 1 1 -175.316924484 -45.815413461 0
744 1 1 -175.423728352 -45.8417370976 0
745 1 1 -175.529864977 -45.8706337544 0
746 1 1 -175.638977575 -45.8845779656 0
747 1 1 -175.748404235 -45.8957942999 0
748 1 1 -175.85838432 -45.8937012374 0
749 1 1 -175.968154686 -45.8865972424 0
750 1 1 -176.070523449 -45.8463401142 0
751 1 1 -176.167725293 -45.7948444682 0