#Actin filament

44 atoms
43 bonds
42 angles

1 atom types
3 bond types
1 angle types

-500 500 xlo xhi
-500 500 ylo yhi
-0.05 0.05 zlo zhi

Masses

1 1


Atoms

1 1 1 -150 0 0
2 1 1 -145.513278134 -0.345437257336 0
3 1 1 -141.064970683 -1.0255554991 0
4 1 1 -136.708495059 -2.15299513746 0
5 1 1 -132.382956377 -3.39384771171 0
6 1 1 -128.001625521 -4.42046347732 0
7 1 1 -123.735486265 -5.85226508598 0
8 1 1 -119.359073137 -6.89964664584 0
9 1 1 -115.007037601 -8.04410577235 0
10 1 1 -110.612678803 -9.01344098394 0
11 1 1 -106.175501635 -9.76274651709 0
12 1 1 -101.840366241 -10.9696438255 0
13 1 1 -97.7852810371 -12.9206138384 0
14 1 1 -93.8542208253 -15.1107657992 0
15 1 1 -89.8143936927 -17.0931372928 0
16 1 1 -85.9112728324 -19.3327014357 0
17 1 1 -81.9830162845 -21.5278780786 0
18 1 1 -78.0220347402 -23.6634401138 0
19 1 1 -73.8676605521 -25.3929415175 0
20 1 1 -69.6433186823 -26.9437270497 0
21 1 1 -65.4865527653 -28.6674721327 0
22 1 1 -61.1718778463 -29.9455880676 0
23 1 1 -56.8570382216 -31.2231478561 0
24 1 1 -52.7229864978 -33.0006788249 0
25 1 1 -48.8330873298 -35.2631298106 0
26 1 1 -44.6682555853 -36.9672942802 0
27 1 1 -40.7287282726 -39.1421792318 0
28 1 1 -36.9351285839 -41.5626340243 0
29 1 1 -33.0997397792 -43.9163104499 0
30 1 1 -29.3453122768 -46.3970914014 0
31 1 1 -25.6411101809 -48.9522600519 0
32 1 1 -21.693605895 -51.1126326848 0
33 1 1 -17.5635170604 -52.899352086 0
34 1 1 -13.1559219498 -53.8066036173 0
35 1 1 -8.75662655577 -54.7532820399 0
36 1 1 -4.42424132001 -55.970014619 0
37 1 1 -0.162663720628 -57.4153368545 0
38 1 1 3.87590768244 -59.4002653223 0
39 1 1 8.16253100695 -60.7695207673 0
40 1 1 12.1780722567 -62.8006358481 0
41 1 1 16.2211952954 -64.7762765276 0
42 1 1 20.362823657 -66.5360817764 0
43 1 1 24.6192866252 -67.9963978382 0
44 1 1 28.9361825392 -69.2669920565 0


Bonds

0 1 1 2
1 2 2 3
2 3 3 4
3 1 4 5
4 2 5 6
5 3 6 7
6 1 7 8
7 2 8 9
8 3 9 10
9 1 10 11
10 2 11 12
11 3 12 13
12 1 13 14
13 2 14 15
14 3 15 16
15 1 16 17
16 2 17 18
17 3 18 19
18 1 19 20
19 2 20 21
20 3 21 22
21 1 22 23
22 2 23 24
23 3 24 25
24 1 25 26
25 2 26 27
26 3 27 28
27 1 28 29
28 2 29 30
29 3 30 31
30 1 31 32
31 2 32 33
32 3 33 34
33 1 34 35
34 2 35 36
35 3 36 37
36 1 37 38
37 2 38 39
38 3 39 40
39 1 40 41
40 2 41 42
41 3 42 43
42 1 43 44


Angles

1 1 1 2 3
2 1 2 3 4
3 1 3 4 5
4 1 4 5 6
5 1 5 6 7
6 1 6 7 8
7 1 7 8 9
8 1 8 9 10
9 1 9 10 11
10 1 10 11 12
11 1 11 12 13
12 1 12 13 14
13 1 13 14 15
14 1 14 15 16
15 1 15 16 17
16 1 16 17 18
17 1 17 18 19
18 1 18 19 20
19 1 19 20 21
20 1 20 21 22
21 1 21 22 23
22 1 22 23 24
23 1 23 24 25
24 1 24 25 26
25 1 25 26 27
26 1 26 27 28
27 1 27 28 29
28 1 28 29 30
29 1 29 30 31
30 1 30 31 32
31 1 31 32 33
32 1 32 33 34
33 1 33 34 35
34 1 34 35 36
35 1 35 36 37
36 1 36 37 38
37 1 37 38 39
38 1 38 39 40
39 1 39 40 41
40 1 40 41 42
41 1 41 42 43
42 1 42 43 44
