#Actin filament

800 atoms
799 bonds
798 angles

1 atom types
3 bond types
1 angle types

-500 500 xlo xhi
-500 500 ylo yhi
-0.05 0.05 zlo zhi

Masses

1 1


Atoms

1 1 1 -150 0 0
2 1 1 -149.750737674 -0.0191909587409 0
3 1 1 -149.503609482 -0.0569753055057 0
4 1 1 -149.261583059 -0.11961084097 0
5 1 1 -149.021275354 -0.188547095095 0
6 1 1 -148.777868085 -0.245581304296 0
7 1 1 -148.540860348 -0.32512583811 0
8 1 1 -148.297726285 -0.383313702547 0
9 1 1 -148.055946533 -0.446894765131 0
10 1 1 -147.811815489 -0.50074672133 0
11 1 1 -147.565305646 -0.542374806505 0
12 1 1 -147.324464791 -0.609424656973 0
13 1 1 -147.09918228 -0.717811879911 0
14 1 1 -146.880790046 -0.839486988847 0
15 1 1 -146.656355205 -0.949618738489 0
16 1 1 -146.439515157 -1.07403896865 0
17 1 1 -146.221278682 -1.19599322659 0
18 1 1 -146.001224152 -1.31463556188 0
19 1 1 -145.770425586 -1.41071897319 0
20 1 1 -145.535739927 -1.49687372498 0
21 1 1 -145.304808487 -1.59263734071 0
22 1 1 -145.065104325 -1.66364378153 0
23 1 1 -144.825391012 -1.73461932534 0
24 1 1 -144.595721472 -1.83337104583 0
25 1 1 -144.379615963 -1.95906276726 0
26 1 1 -144.148236421 -2.05373857112 0
27 1 1 -143.929373793 -2.17456551288 0
28 1 1 -143.718618255 -2.30903522357 0
29 1 1 -143.505541099 -2.43979502499 0
30 1 1 -143.296961793 -2.57761618897 0
31 1 1 -143.091172788 -2.71957000288 0
32 1 1 -142.871866994 -2.83959070471 0
33 1 1 -142.642417614 -2.93885289366 0
34 1 1 -142.397551219 -2.98925575652 0
35 1 1 -142.15314592 -3.04184900222 0
36 1 1 -141.912457851 -3.10944525661 0
37 1 1 -141.67570354 -3.18974093636 0
38 1 1 -141.451338462 -3.30001474013 0
39 1 1 -141.213192722 -3.37608448707 0
40 1 1 -140.990107097 -3.48892421378 0
41 1 1 -140.76548915 -3.59868202931 0
42 1 1 -140.535398686 -3.69644898758 0
43 1 1 -140.298928521 -3.77757765768 0
44 1 1 -140.05910097 -3.84816622536 0
45 1 1 -139.818730739 -3.91688414019 0
46 1 1 -139.572012404 -3.95725818621 0
47 1 1 -139.33506579 -4.03698460675 0
48 1 1 -139.087906974 -4.07456810467 0
49 1 1 -138.837946656 -4.07011392881 0
50 1 1 -138.588042104 -4.0770215329 0
51 1 1 -138.338380758 -4.09002969592 0
52 1 1 -138.090257875 -4.12060803487 0
53 1 1 -137.843761877 -4.16231802109 0
54 1 1 -137.594918464 -4.18633792687 0
55 1 1 -137.346135363 -4.21097466091 0
56 1 1 -137.099824307 -4.25376325324 0
57 1 1 -136.854182538 -4.30024035995 0
58 1 1 -136.607302244 -4.33961192337 0
59 1 1 -136.36301972 -4.3927725175 0
60 1 1 -136.11481795 -4.42270379518 0
61 1 1 -135.865030442 -4.43300916643 0
62 1 1 -135.616598877 -4.46096909088 0
63 1 1 -135.366840175 -4.47195047941 0
64 1 1 -135.122563542 -4.5251381334 0
65 1 1 -134.876487111 -4.56925604397 0
66 1 1 -134.631278298 -4.61796577636 0
67 1 1 -134.387778528 -4.67460376716 0
68 1 1 -134.138034304 -4.68590964402 0
69 1 1 -133.888737442 -4.70464662561 0
70 1 1 -133.639107242 -4.69105386684 0
71 1 1 -133.394070009 -4.64148820484 0
72 1 1 -133.1546326 -4.56958739031 0
73 1 1 -132.915596568 -4.49636324504 0
74 1 1 -132.669280076 -4.45360595845 0
75 1 1 -132.436382543 -4.36272835315 0
76 1 1 -132.19942936 -4.28302145769 0
77 1 1 -131.957654378 -4.21942225839 0
78 1 1 -131.725090855 -4.12769326934 0
79 1 1 -131.489304615 -4.04459784664 0
80 1 1 -131.258055814 -3.94960315327 0
81 1 1 -131.048812487 -3.81279222413 0
82 1 1 -130.832768312 -3.68699510789 0
83 1 1 -130.600272605 -3.59509436796 0
84 1 1 -130.387302872 -3.46415967792 0
85 1 1 -130.183672681 -3.31912607749 0
86 1 1 -129.983996884 -3.1686947776 0
87 1 1 -129.779793728 -3.02446901292 0
88 1 1 -129.585840353 -2.86672843979 0
89 1 1 -129.372256236 -2.7367983629 0
90 1 1 -129.153643781 -2.61551936954 0
91 1 1 -128.961994674 -2.45498706706 0
92 1 1 -128.773853276 -2.29035774381 0
93 1 1 -128.568449746 -2.14784672689 0
94 1 1 -128.391628935 -1.97111415834 0
95 1 1 -128.23223263 -1.77851920018 0
96 1 1 -128.048608218 -1.60886639155 0
97 1 1 -127.877441387 -1.42665246223 0
98 1 1 -127.70664444 -1.24409178014 0
99 1 1 -127.535876626 -1.06150384534 0
100 1 1 -127.374120705 -0.87088636959 0
101 1 1 -127.187541731 -0.70448839411 0
102 1 1 -126.97713886 -0.569467536284 0
103 1 1 -126.752946065 -0.458843891671 0
104 1 1 -126.527650627 -0.350483540776 0
105 1 1 -126.301866214 -0.243145763353 0
106 1 1 -126.080693802 -0.126600646459 0
107 1 1 -125.844405505 -0.0449437991095 0
108 1 1 -125.60136008 0.0136131927145 0
109 1 1 -125.35822565 0.0717995219974 0
110 1 1 -125.111378415 0.111377832843 0
111 1 1 -124.864980687 0.15366447289 0
112 1 1 -124.617731093 0.190646065325 0
113 1 1 -124.381649725 0.272899256556 0
114 1 1 -124.15710602 0.382808877657 0
115 1 1 -123.936085611 0.499642000105 0
116 1 1 -123.709347001 0.604949183209 0
117 1 1 -123.480078814 0.704629164262 0
118 1 1 -123.254957471 0.813350739025 0
119 1 1 -123.014290916 0.881023549349 0
120 1 1 -122.778890606 0.965206052467 0
121 1 1 -122.548174274 1.0614867591 0
122 1 1 -122.313982618 1.1489754323 0
123 1 1 -122.084021313 1.24704580758 0
124 1 1 -121.8440017 1.31697852773 0
125 1 1 -121.609040789 1.40237975728 0
126 1 1 -121.373403681 1.48589714084 0
127 1 1 -121.13434102 1.55903430315 0
128 1 1 -120.901342611 1.64965296031 0
129 1 1 -120.669464691 1.74310150446 0
130 1 1 -120.433146172 1.82467084794 0
131 1 1 -120.192114963 1.89103315546 0
132 1 1 -119.946218627 1.93614404465 0
133 1 1 -119.700623993 1.98286958102 0
134 1 1 -119.45503917 2.02964665386 0
135 1 1 -119.208765399 2.07264932567 0
136 1 1 -118.966626357 2.13484807246 0
137 1 1 -118.717624582 2.1571665878 0
138 1 1 -118.467777712 2.14841778191 0
139 1 1 -118.218583756 2.12835856404 0
140 1 1 -117.969009101 2.11378146691 0
141 1 1 -117.722210517 2.07390090749 0
142 1 1 -117.478692964 2.01733942454 0
143 1 1 -117.228725314 2.01331772433 0
144 1 1 -116.978956374 2.00257172557 0
145 1 1 -116.729011809 1.99730730056 0
146 1 1 -116.480295872 2.02261309125 0
147 1 1 -116.231176589 2.04357931882 0
148 1 1 -115.981197118 2.04678304398 0
149 1 1 -115.731204662 2.04872521937 0
150 1 1 -115.48188618 2.06717229169 0
151 1 1 -115.231971225 2.073692674 0
152 1 1 -114.986968876 2.1234304786 0
153 1 1 -114.742229623 2.17444712169 0
154 1 1 -114.493659957 2.20115145248 0
155 1 1 -114.245576387 2.23204711509 0
156 1 1 -113.996653601 2.25523001238 0
157 1 1 -113.748147301 2.28251771442 0
158 1 1 -113.499894108 2.31201944974 0
159 1 1 -113.253029154 2.35148709061 0
160 1 1 -113.005131892 2.38384365359 0
161 1 1 -112.762003717 2.44205611365 0
162 1 1 -112.526384084 2.52562278593 0
163 1 1 -112.318861303 2.66502972765 0
164 1 1 -112.103757544 2.7924282085 0
165 1 1 -111.903867851 2.94257517084 0
166 1 1 -111.728657469 3.12090442317 0
167 1 1 -111.552826944 3.29862225086 0
168 1 1 -111.361448776 3.4594774556 0
169 1 1 -111.164435606 3.61337940739 0
170 1 1 -110.953572811 3.74768086616 0
171 1 1 -110.722776428 3.84376952147 0
172 1 1 -110.489615724 3.93396977602 0
173 1 1 -110.261636211 4.03656286449 0
174 1 1 -110.021419296 4.10581482371 0
175 1 1 -109.772051066 4.12357674278 0
176 1 1 -109.525520775 4.16508355404 0
177 1 1 -109.280990297 4.21709168536 0
178 1 1 -109.032421181 4.24380113376 0
179 1 1 -108.789257719 4.30186601438 0
180 1 1 -108.540579715 4.32754188408 0
181 1 1 -108.294773727 4.37314250595 0
182 1 1 -108.053889397 4.4400359983 0
183 1 1 -107.8109295 4.49894685196 0
184 1 1 -107.562622991 4.52799641845 0
185 1 1 -107.328594585 4.61592084753 0
186 1 1 -107.104278404 4.7262940831 0
187 1 1 -106.899186693 4.86925348226 0
188 1 1 -106.711390324 5.03427628029 0
189 1 1 -106.514619787 5.18848832899 0
190 1 1 -106.320856598 5.34646246103 0
191 1 1 -106.130592615 5.50863402682 0
192 1 1 -105.980719946 5.70872946158 0
193 1 1 -105.824092858 5.90358313811 0
194 1 1 -105.671689452 6.10175781372 0
195 1 1 -105.533607048 6.31016426679 0
196 1 1 -105.42722961 6.53640272647 0
197 1 1 -105.373812446 6.78062927406 0
198 1 1 -105.323815905 7.02557895448 0
199 1 1 -105.254111851 7.26566507408 0
200 1 1 -105.207089423 7.51120303705 0
201 1 1 -105.167327393 7.75802074511 0
202 1 1 -105.10045495 7.99891091989 0
203 1 1 -105.033753572 8.23984851808 0
204 1 1 -104.934579487 8.46933599251 0
205 1 1 -104.82480595 8.6939462561 0
206 1 1 -104.719609493 8.9207362592 0
207 1 1 -104.643662987 9.15892133047 0
208 1 1 -104.535990391 9.38454626723 0
209 1 1 -104.423702053 9.60790993728 0
210 1 1 -104.338107041 9.84280032436 0
211 1 1 -104.261240957 10.0806902257 0
212 1 1 -104.186262202 10.319181706 0
213 1 1 -104.126538814 10.5619431466 0
214 1 1 -104.10748774 10.8112162028 0
215 1 1 -104.083513818 11.06006405 0
216 1 1 -104.079175704 11.3100264087 0
217 1 1 -104.035007169 11.5560937582 0
218 1 1 -103.943253019 11.7886473563 0
219 1 1 -103.891627691 12.0332589371 0
220 1 1 -103.816477016 12.2716963001 0
221 1 1 -103.726863799 12.5050832564 0
222 1 1 -103.663631548 12.7469544667 0
223 1 1 -103.602021365 12.9892439329 0
224 1 1 -103.510456068 13.2218719541 0
225 1 1 -103.396469477 13.4443737682 0
226 1 1 -103.282166161 13.6667130404 0
227 1 1 -103.147928802 13.8776166469 0
228 1 1 -102.989169398 14.070736951 0
229 1 1 -102.801673618 14.2361011919 0
230 1 1 -102.64179029 14.4282920388 0
231 1 1 -102.472680452 14.6124166236 0
232 1 1 -102.26141404 14.7460822627 0
233 1 1 -102.040721397 14.8635333482 0
234 1 1 -101.804156359 14.9443849569 0
235 1 1 -101.561547576 15.0047254772 0
236 1 1 -101.322309671 15.0772873458 0
237 1 1 -101.088082104 15.1646798335 0
238 1 1 -100.84560929 15.2255644318 0
239 1 1 -100.603787136 15.2889840343 0
240 1 1 -100.361694029 15.3513613348 0
241 1 1 -100.126205799 15.4352975803 0
242 1 1 -99.8952997636 15.5311224361 0
243 1 1 -99.6505426357 15.5820532555 0
244 1 1 -99.4028692306 15.6160809557 0
245 1 1 -99.1530307157 15.625065191 0
246 1 1 -98.9031950405 15.634128048 0
247 1 1 -98.6542341661 15.6113578255 0
248 1 1 -98.4048912938 15.5932434105 0
249 1 1 -98.1683834551 15.5122246333 0
250 1 1 -97.9421006306 15.4059415993 0
251 1 1 -97.7176118807 15.2959197779 0
252 1 1 -97.4966232573 15.1790265432 0
253 1 1 -97.2830957733 15.0490034161 0
254 1 1 -97.0710014327 14.9166554252 0
255 1 1 -96.8660263342 14.7735288763 0
256 1 1 -96.6578570859 14.6350891275 0
257 1 1 -96.4349020442 14.5219916059 0
258 1 1 -96.230786228 14.3776422603 0
259 1 1 -96.0182177975 14.2460570699 0
260 1 1 -95.8041972487 14.116847145 0
261 1 1 -95.6181643585 13.9498388705 0
262 1 1 -95.4480016042 13.7666869197 0
263 1 1 -95.2821203962 13.5796483547 0
264 1 1 -95.114548279 13.3941231932 0
265 1 1 -94.9003341118 13.265234518 0
266 1 1 -94.6933463259 13.1250344593 0
267 1 1 -94.5021850816 12.9639215217 0
268 1 1 -94.3154598675 12.7976876671 0
269 1 1 -94.14299695 12.6166999821 0
270 1 1 -93.9688118049 12.4373691838 0
271 1 1 -93.7835255344 12.2695329602 0
272 1 1 -93.5821227167 12.1214218364 0
273 1 1 -93.3709609378 11.9875909612 0
274 1 1 -93.1896328064 11.8154860259 0
275 1 1 -92.9763228979 11.6851062616 0
276 1 1 -92.7340806302 11.6233107622 0
277 1 1 -92.4962735236 11.5461889103 0
278 1 1 -92.2597518342 11.465210577 0
279 1 1 -92.0266421692 11.3748785003 0
280 1 1 -91.8091773061 11.2515535908 0
281 1 1 -91.5836688321 11.1436372891 0
282 1 1 -91.3562228737 11.0398666959 0
283 1 1 -91.1334885173 10.9263351739 0
284 1 1 -90.9395095218 10.7686261086 0
285 1 1 -90.734459653 10.6256066997 0
286 1 1 -90.5234388764 10.4915536063 0
287 1 1 -90.3293701747 10.3339549419 0
288 1 1 -90.1626279299 10.1476835706 0
289 1 1 -90.0108182037 9.94905374647 0
290 1 1 -89.8368687417 9.76949432824 0
291 1 1 -89.6572765784 9.59557867376 0
292 1 1 -89.4943900109 9.40592644954 0
293 1 1 -89.3465842532 9.20429942261 0
294 1 1 -89.2236751429 8.98659928343 0
295 1 1 -89.0935934485 8.77310747382 0
296 1 1 -88.958164106 8.56296729871 0
297 1 1 -88.8568437134 8.33441932113 0
298 1 1 -88.7424155561 8.1121442735 0
299 1 1 -88.5820808284 7.92032984468 0
300 1 1 -88.4460795941 7.71055934087 0
301 1 1 -88.3146150508 7.49791627405 0
302 1 1 -88.1804751748 7.28695065207 0
303 1 1 -88.0668909582 7.06424316289 0
304 1 1 -87.9815028799 6.82927747161 0
305 1 1 -87.8805166259 6.60058165504 0
306 1 1 -87.7614307316 6.38076684712 0
307 1 1 -87.655511753 6.15431338622 0
308 1 1 -87.5354548082 5.93502743129 0
309 1 1 -87.399739317 5.72507194689 0
310 1 1 -87.3014125787 5.49522014129 0
311 1 1 -87.2260266725 5.25685704611 0
312 1 1 -87.1448268213 5.02041131414 0
313 1 1 -87.0989482314 4.77465705682 0
314 1 1 -87.0745117646 4.52585420497 0
315 1 1 -86.9680892201 4.29963695979 0
316 1 1 -86.872838635 4.0684934415 0
317 1 1 -86.8059572661 3.82760574465 0
318 1 1 -86.7504390791 3.58384821981 0
319 1 1 -86.6967759568 3.33967559789 0
320 1 1 -86.6274105698 3.09949141212 0
321 1 1 -86.5123609053 2.87753741983 0
322 1 1 -86.3692709313 2.67253678727 0
323 1 1 -86.2463597115 2.4548378391 0
324 1 1 -86.1280414335 2.23460890118 0
325 1 1 -86.0375613968 2.001556626 0
326 1 1 -85.966367017 1.76190821628 0
327 1 1 -85.8851556599 1.52546643598 0
328 1 1 -85.7852322395 1.29630424438 0
329 1 1 -85.6633999458 1.07799965849 0
330 1 1 -85.5086938168 0.881617343541 0
331 1 1 -85.3716534074 0.672524239381 0
332 1 1 -85.2019921562 0.488907628367 0
333 1 1 -85.0253486697 0.311997824621 0
334 1 1 -84.8584504263 0.125866214297 0
335 1 1 -84.6804337716 -0.0496617624954 0
336 1 1 -84.479775873 -0.19878053305 0
337 1 1 -84.3082509292 -0.380657397062 0
338 1 1 -84.166566548 -0.586631997727 0
339 1 1 -84.0399894142 -0.802220098529 0
340 1 1 -83.8998170148 -1.00922661639 0
341 1 1 -83.7844143935 -1.23099729752 0
342 1 1 -83.651169324 -1.44252921343 0
343 1 1 -83.4971126311 -1.63942140565 0
344 1 1 -83.3713416597 -1.85548080204 0
345 1 1 -83.2491161246 -2.07356546122 0
346 1 1 -83.1189741341 -2.28702052044 0
347 1 1 -82.9963624777 -2.50488832831 0
348 1 1 -82.8596548112 -2.71419913528 0
349 1 1 -82.7276829181 -2.92652770014 0
350 1 1 -82.5811682611 -3.12909486248 0
351 1 1 -82.4230882576 -3.32277168741 0
352 1 1 -82.2786545649 -3.52682782775 0
353 1 1 -82.1197190216 -3.71980319686 0
354 1 1 -81.9385275079 -3.89205195691 0
355 1 1 -81.7629197028 -4.06998986407 0
356 1 1 -81.5646043197 -4.22221012827 0
357 1 1 -81.3705331546 -4.37980575916 0
358 1 1 -81.1730937512 -4.53316051767 0
359 1 1 -81.0200868015 -4.73086958004 0
360 1 1 -80.8516334501 -4.91559496656 0
361 1 1 -80.6545812314 -5.06944691837 0
362 1 1 -80.4733581708 -5.24166248773 0
363 1 1 -80.2751708857 -5.39404949505 0
364 1 1 -80.1026089093 -5.57494273515 0
365 1 1 -79.9476631314 -5.77113602224 0
366 1 1 -79.7989825002 -5.97211878248 0
367 1 1 -79.6398512025 -6.16493276042 0
368 1 1 -79.4681876899 -6.34667884277 0
369 1 1 -79.2625551445 -6.48885920801 0
370 1 1 -79.0498503704 -6.62022388771 0
371 1 1 -78.8371042145 -6.75152153878 0
372 1 1 -78.6494128717 -6.91666378002 0
373 1 1 -78.4964297211 -7.11439125819 0
374 1 1 -78.3266758922 -7.29792228435 0
375 1 1 -78.1745307323 -7.49629529243 0
376 1 1 -78.0283597525 -7.69911058931 0
377 1 1 -77.8792699091 -7.89978998188 0
378 1 1 -77.7264090556 -8.09761202177 0
379 1 1 -77.5742299282 -8.29595897331 0
380 1 1 -77.4550950149 -8.51574721787 0
381 1 1 -77.3249730281 -8.72921447187 0
382 1 1 -77.2116157864 -8.95203757607 0
383 1 1 -77.127840836 -9.18758323551 0
384 1 1 -77.0495355647 -9.42500329468 0
385 1 1 -76.9712674978 -9.66243562124 0
386 1 1 -76.894085474 -9.90022320543 0
387 1 1 -76.7978626335 -10.1309636765 0
388 1 1 -76.710124187 -10.3650618717 0
389 1 1 -76.6111878673 -10.5946519513 0
390 1 1 -76.5216297425 -10.8280600537 0
391 1 1 -76.4110198742 -11.0522596457 0
392 1 1 -76.2837388031 -11.267432899 0
393 1 1 -76.1687907258 -11.4894395194 0
394 1 1 -76.0764170563 -11.721747731 0
395 1 1 -75.9626108387 -11.9443418569 0
396 1 1 -75.8614618912 -12.1729657629 0
397 1 1 -75.7438738682 -12.3935854738 0
398 1 1 -75.6136276076 -12.6069769254 0
399 1 1 -75.503801582 -12.8315615288 0
400 1 1 -75.3836428416 -13.0507917209 0
401 1 1 -75.2293692095 -13.2475139779 0
402 1 1 -75.1031448952 -13.46330884 0
403 1 1 -75.0071769653 -13.694155448 0
404 1 1 -74.938218179 -13.9344566877 0
405 1 1 -74.8844021943 -14.1785956641 0
406 1 1 -74.7982235702 -14.4132725584 0
407 1 1 -74.7320727902 -14.6543619077 0
408 1 1 -74.6824099792 -14.8993794687 0
409 1 1 -74.6062819037 -15.1375065694 0
410 1 1 -74.5155394979 -15.3704568126 0
411 1 1 -74.4227609428 -15.602603619 0
412 1 1 -74.3256649771 -15.8329780391 0
413 1 1 -74.2042867216 -16.0515353979 0
414 1 1 -74.0983299109 -16.2779711598 0
415 1 1 -74.0093259453 -16.5115911378 0
416 1 1 -73.9108583057 -16.7413826171 0
417 1 1 -73.7956340155 -16.9632460051 0
418 1 1 -73.701069051 -17.1946708687 0
419 1 1 -73.6168345569 -17.43005258 0
420 1 1 -73.5642675586 -17.6744635263 0
421 1 1 -73.5050969695 -17.9173602974 0
422 1 1 -73.4959640069 -18.1671934196 0
423 1 1 -73.4501681407 -18.4129631058 0
424 1 1 -73.4032319173 -18.658517562 0
425 1 1 -73.3598608698 -18.9047267256 0
426 1 1 -73.3052922726 -19.148698585 0
427 1 1 -73.2220195974 -19.3844222825 0
428 1 1 -73.1870119386 -19.6319590754 0
429 1 1 -73.1571793723 -19.8801727293 0
430 1 1 -73.1214372064 -20.1276045332 0
431 1 1 -73.0646423312 -20.3710677586 0
432 1 1 -73.0198100384 -20.6170150406 0
433 1 1 -72.9659232963 -20.8611384091 0
434 1 1 -72.900825493 -21.1025142074 0
435 1 1 -72.8775842244 -21.35143155 0
436 1 1 -72.9095018593 -21.5993857082 0
437 1 1 -72.8999888854 -21.8492046493 0
438 1 1 -72.8645160464 -22.0966752085 0
439 1 1 -72.8525600486 -22.3463891531 0
440 1 1 -72.865534948 -22.59605223 0
441 1 1 -72.8442446544 -22.8451440272 0
442 1 1 -72.8066358953 -23.0922990013 0
443 1 1 -72.7837470689 -23.3412489996 0
444 1 1 -72.7467762799 -23.5885002094 0
445 1 1 -72.7252871063 -23.8375749279 0
446 1 1 -72.7010275505 -24.0863950918 0
447 1 1 -72.6563247295 -24.3323659393 0
448 1 1 -72.6124086397 -24.5784784685 0
449 1 1 -72.5530175786 -24.8213214257 0
450 1 1 -72.5376424083 -25.0708481861 0
451 1 1 -72.5296087754 -25.3207190742 0
452 1 1 -72.5333583093 -25.5706909546 0
453 1 1 -72.5405231045 -25.820588265 0
454 1 1 -72.5356829482 -26.0705414063 0
455 1 1 -72.560464352 -26.3193101384 0
456 1 1 -72.5943670945 -26.5670006793 0
457 1 1 -72.6116208033 -26.8164045877 0
458 1 1 -72.6302348327 -27.0657106604 0
459 1 1 -72.6551413108 -27.3144669012 0
460 1 1 -72.7144023399 -27.5573416229 0
461 1 1 -72.7646409256 -27.802241775 0
462 1 1 -72.8509955849 -28.0368539504 0
463 1 1 -72.9273984833 -28.2748930168 0
464 1 1 -73.0473646346 -28.4942286557 0
465 1 1 -73.1666883118 -28.713914477 0
466 1 1 -73.2834705762 -28.9349617632 0
467 1 1 -73.4044911678 -29.153717372 0
468 1 1 -73.5254162048 -29.3725258166 0
469 1 1 -73.64146715 -29.5939579239 0
470 1 1 -73.7487066467 -29.8197890341 0
471 1 1 -73.8628342402 -30.0422185564 0
472 1 1 -73.9586690688 -30.2731204525 0
473 1 1 -74.0617955282 -30.5008591918 0
474 1 1 -74.186900454 -30.7173049299 0
475 1 1 -74.326346425 -30.9248014869 0
476 1 1 -74.4862621135 -31.116965408 0
477 1 1 -74.6194498252 -31.3285334431 0
478 1 1 -74.7400997967 -31.5474936778 0
479 1 1 -74.864311353 -31.7644533267 0
480 1 1 -75.0077186898 -31.969232075 0
481 1 1 -75.1715735029 -32.1580483884 0
482 1 1 -75.3205399114 -32.3588194251 0
483 1 1 -75.4660341568 -32.5621207398 0
484 1 1 -75.6101728709 -32.7663853502 0
485 1 1 -75.7597224158 -32.9667224003 0
486 1 1 -75.9165293103 -33.1614314084 0
487 1 1 -76.0371034219 -33.3804334258 0
488 1 1 -76.1765940741 -33.5878999483 0
489 1 1 -76.3087044712 -33.8001423639 0
490 1 1 -76.4394192117 -34.0132471658 0
491 1 1 -76.5749130094 -34.2233457874 0
492 1 1 -76.7265286437 -34.4221238028 0
493 1 1 -76.8699743601 -34.6268756684 0
494 1 1 -77.0126848537 -34.8321406557 0
495 1 1 -77.1176848195 -35.0590216976 0
496 1 1 -77.2069038076 -35.2925596435 0
497 1 1 -77.2804713779 -35.5314902037 0
498 1 1 -77.3435100987 -35.7734119259 0
499 1 1 -77.4108751238 -36.0141648146 0
500 1 1 -77.5142927843 -36.2417714654 0
501 1 1 -77.6111381756 -36.4722513348 0
502 1 1 -77.7105672476 -36.7016284471 0
503 1 1 -77.8417651181 -36.9144361508 0
504 1 1 -77.9991766039 -37.1086567062 0
505 1 1 -78.1543246202 -37.3046901039 0
506 1 1 -78.305188789 -37.5040390507 0
507 1 1 -78.451694384 -37.7066127673 0
508 1 1 -78.6317480594 -37.8800505773 0
509 1 1 -78.7843984019 -38.0780351044 0
510 1 1 -78.9414929573 -38.272512097 0
511 1 1 -79.1163401326 -38.4511974777 0
512 1 1 -79.2975592527 -38.6234171935 0
513 1 1 -79.4929376611 -38.7793892344 0
514 1 1 -79.6671942717 -38.9586505901 0
515 1 1 -79.8528856095 -39.1260385439 0
516 1 1 -80.0206448909 -39.3113944812 0
517 1 1 -80.1872868306 -39.4977555929 0
518 1 1 -80.3257697981 -39.7058960928 0
519 1 1 -80.4384724156 -39.9290510166 0
520 1 1 -80.5848364647 -40.1317270268 0
521 1 1 -80.7194919877 -40.3423638948 0
522 1 1 -80.8596446086 -40.5493838041 0
523 1 1 -81.0039510676 -40.7535299427 0
524 1 1 -81.1324955676 -40.9679508173 0
525 1 1 -81.2498453384 -41.1886973492 0
526 1 1 -81.3586651801 -41.4137712083 0
527 1 1 -81.4746534146 -41.6352361704 0
528 1 1 -81.6104609611 -41.8451321215 0
529 1 1 -81.7306318219 -42.0643556701 0
530 1 1 -81.7989846389 -42.3048299772 0
531 1 1 -81.8459256141 -42.550383525 0
532 1 1 -81.8855669577 -42.7972206452 0
533 1 1 -81.8927398764 -43.0471177225 0
534 1 1 -81.9062040803 -43.2967548896 0
535 1 1 -81.8876292844 -43.5460638886 0
536 1 1 -81.8756352684 -43.79577601 0
537 1 1 -81.8689240933 -44.045685914 0
538 1 1 -81.8606498462 -44.2955489501 0
539 1 1 -81.8611636172 -44.5455484222 0
540 1 1 -81.8245344927 -44.7928504789 0
541 1 1 -81.7813704241 -45.0390960132 0
542 1 1 -81.7510979994 -45.2872564055 0
543 1 1 -81.7042816894 -45.532833752 0
544 1 1 -81.6697967928 -45.7804439132 0
545 1 1 -81.6284381559 -46.0269991061 0
546 1 1 -81.5858288793 -46.2733412453 0
547 1 1 -81.584713559 -46.5233387574 0
548 1 1 -81.5393295269 -46.7691848264 0
549 1 1 -81.462165608 -47.0069782864 0
550 1 1 -81.3792882885 -47.2428412761 0
551 1 1 -81.2581310241 -47.4615212187 0
552 1 1 -81.146557593 -47.6852428526 0
553 1 1 -81.0215201269 -47.9017275681 0
554 1 1 -80.8777107037 -48.1062241447 0
555 1 1 -80.7142895835 -48.2954159454 0
556 1 1 -80.5913593719 -48.5131041699 0
557 1 1 -80.4659398847 -48.7293677873 0
558 1 1 -80.3288256163 -48.9384124653 0
559 1 1 -80.1670758034 -49.1290351241 0
560 1 1 -80.0747633022 -49.3613676489 0
561 1 1 -79.9949124114 -49.5982723455 0
562 1 1 -79.9277159974 -49.8390723495 0
563 1 1 -79.8430498992 -50.0742991588 0
564 1 1 -79.7886754853 -50.3183143696 0
565 1 1 -79.7324378492 -50.5619069153 0
566 1 1 -79.6521829577 -50.7986750558 0
567 1 1 -79.5784344473 -51.0375498289 0
568 1 1 -79.5120562667 -51.278576668 0
569 1 1 -79.464940711 -51.524096778 0
570 1 1 -79.4054947037 -51.7669262906 0
571 1 1 -79.384839927 -52.01607159 0
572 1 1 -79.3970880004 -52.2657713791 0
573 1 1 -79.3689834796 -52.5141866281 0
574 1 1 -79.3856783305 -52.7636285691 0
575 1 1 -79.3834432203 -53.0136185775 0
576 1 1 -79.4021885182 -53.2629148146 0
577 1 1 -79.4221693691 -53.5121150666 0
578 1 1 -79.4286822831 -53.7620302161 0
579 1 1 -79.4414320615 -54.0117048907 0
580 1 1 -79.4497035239 -54.261568019 0
581 1 1 -79.444138881 -54.5115060809 0
582 1 1 -79.4248905041 -54.7607639794 0
583 1 1 -79.40609104 -55.0100561376 0
584 1 1 -79.4019948269 -55.2600225774 0
585 1 1 -79.4242473047 -55.5090302625 0
586 1 1 -79.4653584865 -55.7556268374 0
587 1 1 -79.4950306262 -56.0038597202 0
588 1 1 -79.5108900908 -56.2533561679 0
589 1 1 -79.5138739275 -56.5033383607 0
590 1 1 -79.5243089514 -56.7531204863 0
591 1 1 -79.5606369317 -57.0004669596 0
592 1 1 -79.5947296698 -57.2481314205 0
593 1 1 -79.6462791722 -57.4927589921 0
594 1 1 -79.6670656691 -57.7418933365 0
595 1 1 -79.7200161104 -57.9862214986 0
596 1 1 -79.7491514802 -58.2345179549 0
597 1 1 -79.7538578493 -58.4844736511 0
598 1 1 -79.7467432781 -58.7343723964 0
599 1 1 -79.7093148489 -58.9815547434 0
600 1 1 -79.6814799438 -59.2300003472 0
601 1 1 -79.6592402616 -59.4790091755 0
602 1 1 -79.6211213597 -59.726085984 0
603 1 1 -79.6234875959 -59.9760747856 0
604 1 1 -79.6224790649 -60.2260727513 0
605 1 1 -79.6427199382 -60.4752520182 0
606 1 1 -79.6475476967 -60.7252053994 0
607 1 1 -79.6591899743 -60.974934167 0
608 1 1 -79.6647205144 -61.2248729857 0
609 1 1 -79.686099734 -61.4739571662 0
610 1 1 -79.7578308166 -61.7134454787 0
611 1 1 -79.8450420551 -61.9477405915 0
612 1 1 -79.8902956393 -62.1936107058 0
613 1 1 -79.9120874743 -62.4426591266 0
614 1 1 -79.9589080246 -62.6882356648 0
615 1 1 -79.9832560606 -62.9370471861 0
616 1 1 -80.0583857277 -63.1754911693 0
617 1 1 -80.1564909506 -63.4054376092 0
618 1 1 -80.1847316422 -63.6538374146 0
619 1 1 -80.1677433509 -63.9032595427 0
620 1 1 -80.1698173374 -64.1532509397 0
621 1 1 -80.1642108207 -64.4031880657 0
622 1 1 -80.1539755324 -64.6529784556 0
623 1 1 -80.1318016491 -64.9019931518 0
624 1 1 -80.1229414364 -65.1518360957 0
625 1 1 -80.0851774909 -65.3989674058 0
626 1 1 -80.0461469041 -65.6459018369 0
627 1 1 -80.0326335908 -65.8955363505 0
628 1 1 -80.026030376 -66.1454491304 0
629 1 1 -80.0002869549 -66.3941201505 0
630 1 1 -79.9996531845 -66.6441193472 0
631 1 1 -80.0005642452 -66.8941176871 0
632 1 1 -80.0219741034 -67.143199236 0
633 1 1 -80.0179797729 -67.3931673246 0
634 1 1 -80.0475451594 -67.6414129447 0
635 1 1 -80.0605474199 -67.8910745982 0
636 1 1 -80.0730029937 -68.1407641228 0
637 1 1 -80.0716816795 -68.390760631 0
638 1 1 -80.0490165881 -68.6397310984 0
639 1 1 -80.0177562791 -68.8877689848 0
640 1 1 -80.0534224927 -69.1352117483 0
641 1 1 -80.1228426113 -69.3753801208 0
642 1 1 -80.1944580112 -69.6149030518 0
643 1 1 -80.2056754473 -69.8646512633 0
644 1 1 -80.2092852842 -70.1146252001 0
645 1 1 -80.2157234286 -70.3645422869 0
646 1 1 -80.2679858759 -70.6090185365 0
647 1 1 -80.3169503856 -70.8541766014 0
648 1 1 -80.399587679 -71.0901237941 0
649 1 1 -80.467295763 -71.3307804278 0
650 1 1 -80.5547809799 -71.5649733757 0
651 1 1 -80.6521698529 -71.7952241247 0
652 1 1 -80.764122179 -72.0187563968 0
653 1 1 -80.8805337694 -72.2399991178 0
654 1 1 -81.0016690965 -72.4586912131 0
655 1 1 -81.1362480098 -72.6693770363 0
656 1 1 -81.263918466 -72.8843194812 0
657 1 1 -81.3930185553 -73.0984063022 0
658 1 1 -81.5187287588 -73.3145010609 0
659 1 1 -81.6480272558 -73.5284681114 0
660 1 1 -81.7608940945 -73.7515400207 0
661 1 1 -81.8947423273 -73.9626907976 0
662 1 1 -82.0705740515 -74.1404074393 0
663 1 1 -82.2536874244 -74.3106117068 0
664 1 1 -82.4369380245 -74.4806682197 0
665 1 1 -82.6250717974 -74.6453062575 0
666 1 1 -82.808972344 -74.8146597013 0
667 1 1 -82.9902215712 -74.9868477313 0
668 1 1 -83.1864201584 -75.141786798 0
669 1 1 -83.3860895252 -75.2922266329 0
670 1 1 -83.5895055472 -75.4375604625 0
671 1 1 -83.7512041722 -75.6282265441 0
672 1 1 -83.8931318562 -75.8340335714 0
673 1 1 -84.0118510356 -76.0540466539 0
674 1 1 -84.1038486678 -76.2865040385 0
675 1 1 -84.1786112957 -76.5250633592 0
676 1 1 -84.2593276405 -76.7616745839 0
677 1 1 -84.3265857816 -77.0024573542 0
678 1 1 -84.3901925318 -77.2442303496 0
679 1 1 -84.4640672414 -77.4830661243 0
680 1 1 -84.539843409 -77.7213054419 0
681 1 1 -84.6233894854 -77.9569323782 0
682 1 1 -84.7003696251 -78.194785396 0
683 1 1 -84.8188696725 -78.4149165814 0
684 1 1 -84.9442562647 -78.6311992725 0
685 1 1 -85.1021214891 -78.8250512029 0
686 1 1 -85.233099026 -79.037994587 0
687 1 1 -85.3669509567 -79.2491430198 0
688 1 1 -85.5068670534 -79.4563228592 0
689 1 1 -85.6155593724 -79.6814583291 0
690 1 1 -85.7622972268 -79.8838638678 0
691 1 1 -85.8878437383 -80.1000537691 0
692 1 1 -86.0224216411 -80.3107402378 0
693 1 1 -86.1477852089 -80.5270362754 0
694 1 1 -86.2969694615 -80.7276454944 0
695 1 1 -86.4299975344 -80.9393139423 0
696 1 1 -86.5437528485 -81.1619340863 0
697 1 1 -86.6450773201 -81.3904802555 0
698 1 1 -86.7456240116 -81.6193696673 0
699 1 1 -86.8865317528 -81.8258763463 0
700 1 1 -87.0579502465 -82.0078535427 0
701 1 1 -87.2257626582 -82.1931613797 0
702 1 1 -87.4118382312 -82.3601220971 0
703 1 1 -87.5820893097 -82.5431919479 0
704 1 1 -87.7745709188 -82.702725111 0
705 1 1 -87.9832696171 -82.8403654152 0
706 1 1 -88.1917349244 -82.9783589501 0
707 1 1 -88.4026612375 -83.1125606283 0
708 1 1 -88.6218730851 -83.2327528322 0
709 1 1 -88.8406513536 -83.3537324553 0
710 1 1 -89.062624814 -83.4687445542 0
711 1 1 -89.2929420842 -83.5659760051 0
712 1 1 -89.5228271564 -83.6642249419 0
713 1 1 -89.7544490527 -83.7583062746 0
714 1 1 -89.9947531365 -83.8272551491 0
715 1 1 -90.2263702946 -83.9213481461 0
716 1 1 -90.4541642825 -84.0243525104 0
717 1 1 -90.6946567116 -84.0926415399 0
718 1 1 -90.9361573635 -84.1572746206 0
719 1 1 -91.1790247606 -84.2165656605 0
720 1 1 -91.4234747203 -84.2689509374 0
721 1 1 -91.6723634658 -84.2924964748 0
722 1 1 -91.9208161976 -84.3202676842 0
723 1 1 -92.1672374612 -84.3624169528 0
724 1 1 -92.4139065817 -84.4030905932 0
725 1 1 -92.6551096804 -84.4688254024 0
726 1 1 -92.8901323309 -84.5540565807 0
727 1 1 -93.1284069467 -84.6297216816 0
728 1 1 -93.3691198195 -84.6972295542 0
729 1 1 -93.6049605055 -84.7801703211 0
730 1 1 -93.8341660509 -84.8799942559 0
731 1 1 -94.0584105879 -84.9905129767 0
732 1 1 -94.2687020265 -85.1257073215 0
733 1 1 -94.4726165585 -85.2703408708 0
734 1 1 -94.6630050132 -85.4323662896 0
735 1 1 -94.8467043259 -85.6019379927 0
736 1 1 -95.0447198577 -85.7545481142 0
737 1 1 -95.2358887677 -85.915651956 0
738 1 1 -95.4159461833 -86.0890858832 0
739 1 1 -95.5931536863 -86.2654307183 0
740 1 1 -95.7891290685 -86.4206520106 0
741 1 1 -95.9703025469 -86.5929197404 0
742 1 1 -96.1665692055 -86.7477725696 0
743 1 1 -96.3844032783 -86.8704441504 0
744 1 1 -96.6022688335 -86.9930598095 0
745 1 1 -96.8230203206 -87.1104002584 0
746 1 1 -97.0511958998 -87.212556536 0
747 1 1 -97.2631023119 -87.3452052168 0
748 1 1 -97.4843698625 -87.4615696059 0
749 1 1 -97.7133032035 -87.5620162353 0
750 1 1 -97.9450137953 -87.6558789098 0
751 1 1 -98.1659687394 -87.7728357937 0
752 1 1 -98.3816353394 -87.8992791312 0
753 1 1 -98.5924017313 -88.0337318294 0
754 1 1 -98.8084468723 -88.1595272867 0
755 1 1 -99.0390006868 -88.2561965094 0
756 1 1 -99.2694273319 -88.3531684705 0
757 1 1 -99.4978518394 -88.4547669171 0