#Actin filament

8 atoms
7 bonds
6 angles

1 atom types
3 bond types
1 angle types

-500 500 xlo xhi
-500 500 ylo yhi
-0.05 0.05 zlo zhi

Masses

1 1


Atoms

1 1 1 -150 0 0
2 1 1 -127.010526964 -0.695794164495 0
3 1 1 -104.011626781 -0.920717254291 0
4 1 1 -81.0304422481 -1.85085565695 0
5 1 1 -58.8646993078 -7.98924631796 0
6 1 1 -37.222866511 -15.7758420563 0
7 1 1 -14.5984111925 -19.9151682744 0
8 1 1 8.36544639058 -21.2040611738 0


Bonds

0 1 1 2
1 2 2 3
2 3 3 4
3 1 4 5
4 2 5 6
5 3 6 7
6 1 7 8


Angles

1 1 1 2 3
2 1 2 3 4
3 1 3 4 5
4 1 4 5 6
5 1 5 6 7
6 1 6 7 8
