#Actin filament

3 atoms
2 bonds
1 angles

1 atom types
3 bond types
1 angle types

-500 500 xlo xhi
-500 500 ylo yhi
-0.05 0.05 zlo zhi

Masses

1 1


Atoms

1 1 1 -150 0 0
2 1 1 -98.0123555901 -1.13350284853 0
3 1 1 -46.1065603239 -4.26214756825 0


Bonds

0 1 1 2
1 2 2 3


Angles

1 1 1 2 3
