#Actin filament

18 atoms
17 bonds
16 angles

1 atom types
3 bond types
1 angle types

-500 500 xlo xhi
-500 500 ylo yhi
-0.05 0.05 zlo zhi

Masses

1 1


Atoms

1 1 1 -150 0 0
2 1 1 -139.002914827 -0.25321470659 0
3 1 1 -128.004368543 -0.0743861675076 0
4 1 1 -117.008408902 0.223727202017 0
5 1 1 -106.662056018 3.95909625886 0
6 1 1 -96.348540032 7.78419599749 0
7 1 1 -85.9470348339 11.3631189659 0
8 1 1 -75.604388998 15.1087400243 0
9 1 1 -64.9273280311 17.7545610895 0
10 1 1 -54.4516487712 21.1101748999 0
11 1 1 -43.7842554053 23.794708151 0
12 1 1 -32.7922851998 24.2149354727 0
13 1 1 -21.8565186588 23.0279181351 0
14 1 1 -10.8573943752 22.8891197427 0
15 1 1 0.0855992525888 21.7706875977 0
16 1 1 11.0659304497 21.1131719692 0
17 1 1 21.9567743732 19.5673651783 0
18 1 1 32.9206060714 18.6760770692 0


Bonds

0 1 1 2
1 2 2 3
2 3 3 4
3 1 4 5
4 2 5 6
5 3 6 7
6 1 7 8
7 2 8 9
8 3 9 10
9 1 10 11
10 2 11 12
11 3 12 13
12 1 13 14
13 2 14 15
14 3 15 16
15 1 16 17
16 2 17 18


Angles

1 1 1 2 3
2 1 2 3 4
3 1 3 4 5
4 1 4 5 6
5 1 5 6 7
6 1 6 7 8
7 1 7 8 9
8 1 8 9 10
9 1 9 10 11
10 1 10 11 12
11 1 11 12 13
12 1 12 13 14
13 1 13 14 15
14 1 14 15 16
15 1 15 16 17
16 1 16 17 18
