#Actin filament

5 atoms
4 bonds
3 angles

1 atom types
3 bond types
1 angle types

-500 500 xlo xhi
-500 500 ylo yhi
-0.05 0.05 zlo zhi

Masses

1 1


Atoms

1 1 1 -150 0 0
2 1 1 -113.171567672 -3.55901281666 0
3 1 1 -76.2035589845 -5.09730203213 0
4 1 1 -39.2395570769 -3.46556584762 0
5 1 1 -2.84840733 3.21905980393 0


Bonds

0 1 1 2
1 2 2 3
2 3 3 4
3 1 4 5


Angles

1 1 1 2 3
2 1 2 3 4
3 1 3 4 5
