#Actin filament

50 atoms
49 bonds
48 angles

1 atom types
3 bond types
1 angle types

-500 500 xlo xhi
-500 500 ylo yhi
-0.05 0.05 zlo zhi

Masses

1 1


Atoms

1 1 1 -150 0 0
2 1 1 -146.011802786 -0.307055339854 0
3 1 1 -142.057751719 -0.911604888092 0
4 1 1 -138.185328942 -1.91377345552 0
5 1 1 -134.340405669 -3.01675352152 0
6 1 1 -130.445889352 -3.92930086873 0
7 1 1 -126.653765569 -5.20201340976 0
8 1 1 -122.763620566 -6.13301924074 0
9 1 1 -118.895144534 -7.15031624209 0
10 1 1 -114.989047825 -8.01194754128 0
11 1 1 -111.044890342 -8.67799690408 0
12 1 1 -107.191436658 -9.75079451156 0
13 1 1 -103.586916477 -11.4849900786 0
14 1 1 -100.092640734 -13.4317918216 0
15 1 1 -96.5016832824 -15.1938998158 0
16 1 1 -93.0322425177 -17.1846234984 0
17 1 1 -89.5404589195 -19.1358916255 0
18 1 1 -86.0195864358 -21.03416899 0
19 1 1 -82.3268093797 -22.5715035711 0
20 1 1 -78.5718388287 -23.9499795997 0
21 1 1 -74.8769357914 -25.4821974513 0
22 1 1 -71.0416691967 -26.6183005045 0
23 1 1 -67.206256197 -27.7539092054 0
24 1 1 -63.5315435536 -29.3339367332 0
25 1 1 -60.0738554043 -31.3450042761 0
26 1 1 -56.3717827424 -32.859817138 0
27 1 1 -52.8699806867 -34.7930482061 0
28 1 1 -49.4978920746 -36.9445635771 0
29 1 1 -46.0886575815 -39.0367203999 0
30 1 1 -42.7513886905 -41.2418590235 0
31 1 1 -39.4587646052 -43.5131200461 0
32 1 1 -35.9498719067 -45.4334512754 0
33 1 1 -32.2786818315 -47.0216462986 0
34 1 1 -28.360819511 -47.8280921043 0
35 1 1 -24.4503347162 -48.6695840355 0
36 1 1 -20.5993256178 -49.7511241057 0
37 1 1 -16.8112566406 -51.0358549817 0
38 1 1 -13.2214153934 -52.800235842 0
39 1 1 -9.41108354938 -54.0173517932 0
40 1 1 -5.84171354957 -55.8227874205 0
41 1 1 -2.24782640412 -57.5789124689 0
42 1 1 1.43362102846 -59.1431838013 0
43 1 1 5.21714366688 -60.4412425228 0
44 1 1 9.05438447932 -61.5706596058 0
45 1 1 12.900308183 -62.6701462431 0
46 1 1 16.8478015295 -63.3161309793 0
47 1 1 20.6389473529 -64.5917537079 0
48 1 1 24.5934884204 -65.1930896747 0
49 1 1 28.5928535002 -65.121822861 0
50 1 1 32.5913263289 -65.2323445264 0


Bonds

0 1 1 2
1 2 2 3
2 3 3 4
3 1 4 5
4 2 5 6
5 3 6 7
6 1 7 8
7 2 8 9
8 3 9 10
9 1 10 11
10 2 11 12
11 3 12 13
12 1 13 14
13 2 14 15
14 3 15 16
15 1 16 17
16 2 17 18
17 3 18 19
18 1 19 20
19 2 20 21
20 3 21 22
21 1 22 23
22 2 23 24
23 3 24 25
24 1 25 26
25 2 26 27
26 3 27 28
27 1 28 29
28 2 29 30
29 3 30 31
30 1 31 32
31 2 32 33
32 3 33 34
33 1 34 35
34 2 35 36
35 3 36 37
36 1 37 38
37 2 38 39
38 3 39 40
39 1 40 41
40 2 41 42
41 3 42 43
42 1 43 44
43 2 44 45
44 3 45 46
45 1 46 47
46 2 47 48
47 3 48 49
48 1 49 50


Angles

1 1 1 2 3
2 1 2 3 4
3 1 3 4 5
4 1 4 5 6
5 1 5 6 7
6 1 6 7 8
7 1 7 8 9
8 1 8 9 10
9 1 9 10 11
10 1 10 11 12
11 1 11 12 13
12 1 12 13 14
13 1 13 14 15
14 1 14 15 16
15 1 15 16 17
16 1 16 17 18
17 1 17 18 19
18 1 18 19 20
19 1 19 20 21
20 1 20 21 22
21 1 21 22 23
22 1 22 23 24
23 1 23 24 25
24 1 24 25 26
25 1 25 26 27
26 1 26 27 28
27 1 27 28 29
28 1 28 29 30
29 1 29 30 31
30 1 30 31 32
31 1 31 32 33
32 1 32 33 34
33 1 33 34 35
34 1 34 35 36
35 1 35 36 37
36 1 36 37 38
37 1 37 38 39
38 1 38 39 40
39 1 39 40 41
40 1 40 41 42
41 1 41 42 43
42 1 42 43 44
43 1 43 44 45
44 1 44 45 46
45 1 45 46 47
46 1 46 47 48
47 1 47 48 49
48 1 48 49 50
