#Actin filament

22 atoms
21 bonds
20 angles

1 atom types
3 bond types
1 angle types

-500 500 xlo xhi
-500 500 ylo yhi
-0.05 0.05 zlo zhi

Masses

1 1


Atoms

1 1 1 -150 0 0
2 1 1 -141.002120697 0.195366466015 0
3 1 1 -132.004086519 0.383464661185 0
4 1 1 -123.081206823 -0.792212985079 0
5 1 1 -114.188297195 -2.1764667012 0
6 1 1 -105.327513145 -3.75333258335 0
7 1 1 -96.4006588409 -4.89844054183 0
8 1 1 -87.4007000031 -4.87122073582 0
9 1 1 -78.4728984452 -3.73352159147 0
10 1 1 -69.4985046577 -3.05509978579 0
11 1 1 -60.498524144 -3.07382818145 0
12 1 1 -51.5080745273 -3.48833474285 0
13 1 1 -42.5779531868 -4.60767957064 0
14 1 1 -33.6247656464 -5.5244308273 0
15 1 1 -24.7516195046 -7.03017899547 0
16 1 1 -15.7660912099 -7.54035667529 0
17 1 1 -6.82988424805 -6.47068142752 0
18 1 1 2.01731465201 -4.81929666832 0
19 1 1 10.999704842 -4.256565405 0
20 1 1 19.8926839924 -2.87275839883 0
21 1 1 28.8797165558 -2.38980322079 0
22 1 1 37.877958006 -2.56770995072 0


Bonds

0 1 1 2
1 2 2 3
2 3 3 4
3 1 4 5
4 2 5 6
5 3 6 7
6 1 7 8
7 2 8 9
8 3 9 10
9 1 10 11
10 2 11 12
11 3 12 13
12 1 13 14
13 2 14 15
14 3 15 16
15 1 16 17
16 2 17 18
17 3 18 19
18 1 19 20
19 2 20 21
20 3 21 22


Angles

1 1 1 2 3
2 1 2 3 4
3 1 3 4 5
4 1 4 5 6
5 1 5 6 7
6 1 6 7 8
7 1 7 8 9
8 1 8 9 10
9 1 9 10 11
10 1 10 11 12
11 1 11 12 13
12 1 12 13 14
13 1 13 14 15
14 1 14 15 16
15 1 15 16 17
16 1 16 17 18
17 1 17 18 19
18 1 18 19 20
19 1 19 20 21
20 1 20 21 22
