#Actin filament

11 atoms
10 bonds
9 angles

1 atom types
3 bond types
1 angle types

-500 500 xlo xhi
-500 500 ylo yhi
-0.05 0.05 zlo zhi

Masses

1 1


Atoms

1 1 1 -150 0 0
2 1 1 -133.310708025 -3.23535676022 0
3 1 1 -116.764587967 -7.1373961038 0
4 1 1 -100.573077806 -12.3176469368 0
5 1 1 -85.2423663962 -19.664026159 0
6 1 1 -70.2722432018 -27.7197949953 0
7 1 1 -55.1042823904 -35.3965758847 0
8 1 1 -39.9321701671 -43.0651488083 0
9 1 1 -26.0114798283 -52.8229344429 0
10 1 1 -14.6128580849 -65.4352864183 0
11 1 1 -0.814104710064 -75.3647579702 0


Bonds

0 1 1 2
1 2 2 3
2 3 3 4
3 1 4 5
4 2 5 6
5 3 6 7
6 1 7 8
7 2 8 9
8 3 9 10
9 1 10 11


Angles

1 1 1 2 3
2 1 2 3 4
3 1 3 4 5
4 1 4 5 6
5 1 5 6 7
6 1 6 7 8
7 1 7 8 9
8 1 8 9 10
9 1 9 10 11
