#Actin filament

10 atoms
9 bonds
8 angles

1 atom types
3 bond types
1 angle types

-500 500 xlo xhi
-500 500 ylo yhi
-0.05 0.05 zlo zhi

Masses

1 1


Atoms

1 1 1 -150 0 0
2 1 1 -131.038215136 1.20445621508 0
3 1 1 -112.399991863 4.89452846679 0
4 1 1 -94.530711466 11.3512163247 0
5 1 1 -76.2860913968 16.6553504228 0
6 1 1 -57.7721872041 20.9256374789 0
7 1 1 -38.9489075819 23.5110086833 0
8 1 1 -19.9583992986 24.1115044314 0
9 1 1 -1.26608396102 27.5169922555 0
10 1 1 17.1646449151 32.1330764289 0


Bonds

0 1 1 2
1 2 2 3
2 3 3 4
3 1 4 5
4 2 5 6
5 3 6 7
6 1 7 8
7 2 8 9
8 3 9 10


Angles

1 1 1 2 3
2 1 2 3 4
3 1 3 4 5
4 1 4 5 6
5 1 5 6 7
6 1 6 7 8
7 1 7 8 9
8 1 8 9 10
