#Actin filament

5 atoms
4 bonds
3 angles

1 atom types
3 bond types
1 angle types

-500 500 xlo xhi
-500 500 ylo yhi
-0.05 0.05 zlo zhi

Masses

1 1


Atoms

1 1 1 -150 0 0
2 1 1 -115.000049243 -0.0587110767864 0
3 1 1 -80.0055641198 0.562586738864 0
4 1 1 -46.4338656926 10.4591045465 0
5 1 1 -13.2009079956 21.4395654982 0


Bonds

0 1 1 2
1 2 2 3
2 3 3 4
3 1 4 5


Angles

1 1 1 2 3
2 1 2 3 4
3 1 3 4 5
