#Actin filament

266 atoms
265 bonds
264 angles

1 atom types
3 bond types
1 angle types

-500 500 xlo xhi
-500 500 ylo yhi
-0.05 0.05 zlo zhi

Masses

1 1


Atoms

1 1 1 -150 0 0
2 1 1 -149.252213022 -0.0575728762226 0
3 1 1 -148.510828447 -0.170925916517 0
4 1 1 -147.784749177 -0.358832522911 0
5 1 1 -147.063826063 -0.565641285284 0
6 1 1 -146.333604254 -0.736743912887 0
7 1 1 -145.622581044 -0.97537751433 0
8 1 1 -144.893178856 -1.14994110764 0
9 1 1 -144.1678396 -1.34068429539 0
10 1 1 -143.435446467 -1.50224016399 0
11 1 1 -142.695916939 -1.62712441952 0
12 1 1 -141.973394373 -1.82827397092 0
13 1 1 -141.29754684 -2.15343563973 0
14 1 1 -140.642370138 -2.51846096654 0
15 1 1 -139.969065615 -2.84885621547 0
16 1 1 -139.318545472 -3.22211690594 0
17 1 1 -138.663836047 -3.58797967977 0
18 1 1 -138.003672457 -3.94390668563 0
19 1 1 -137.311276759 -4.23215691958 0
20 1 1 -136.60721978 -4.49062117495 0
21 1 1 -135.914425461 -4.77791202212 0
22 1 1 -135.195312974 -4.99093134459 0
23 1 1 -134.476173037 -5.20385797601 0
24 1 1 -133.787164416 -5.50011313748 0
25 1 1 -133.138847888 -5.87718830177 0
26 1 1 -132.444709264 -6.16121571337 0
27 1 1 -131.788121379 -6.52369653864 0
28 1 1 -131.155854764 -6.92710567072 0
29 1 1 -130.516623297 -7.31938507498 0
30 1 1 -129.890885379 -7.7328485669 0
31 1 1 -129.273518363 -8.15871000865 0
32 1 1 -128.615600983 -8.51877211414 0
33 1 1 -127.927252843 -8.81655868099 0
34 1 1 -127.192653658 -8.96776726955 0
35 1 1 -126.459437759 -9.12554700665 0
36 1 1 -125.737373553 -9.32833576983 0
37 1 1 -125.02711062 -9.56922280908 0
38 1 1 -124.354015386 -9.90004422038 0
39 1 1 -123.639578166 -10.1282534612 0
40 1 1 -122.970321291 -10.4667726413 0
41 1 1 -122.296467451 -10.7960460879 0
42 1 1 -121.606196057 -11.0893469627 0
43 1 1 -120.896785562 -11.332732973 0
44 1 1 -120.17730291 -11.5444986761 0
45 1 1 -119.456192216 -11.7506524206 0
46 1 1 -118.716037213 -11.8717745586 0
47 1 1 -118.005197371 -12.1109538202 0
48 1 1 -117.263720921 -12.223704314 0
49 1 1 -116.513839969 -12.2103417864 0
50 1 1 -115.764126313 -12.2310645987 0
51 1 1 -115.015142275 -12.2700890878 0
52 1 1 -114.270773626 -12.3618241046 0
53 1 1 -113.531285631 -12.4869540633 0
54 1 1 -112.784755393 -12.5590137806 0
55 1 1 -112.03840609 -12.6329239827 0
56 1 1 -111.299472922 -12.7612897597 0
57 1 1 -110.562547615 -12.9007210798 0
58 1 1 -109.821906731 -13.0188357701 0
59 1 1 -109.089059161 -13.1783175525 0
60 1 1 -108.344453851 -13.2681113855 0
61 1 1 -107.595091326 -13.2990274993 0
62 1 1 -106.84979663 -13.3829072726 0
63 1 1 -106.100520525 -13.4158514382 0
64 1 1 -105.367690625 -13.5754144002 0
65 1 1 -104.629461332 -13.7077681319 0
66 1 1 -103.893834893 -13.8538973291 0
67 1 1 -103.163335583 -14.0238113015 0
68 1 1 -102.414102912 -14.0577289321 0
69 1 1 -101.666212326 -14.1139398768 0
70 1 1 -100.917321725 -14.0731616005 0
71 1 1 -100.182210028 -13.9244646145 0
72 1 1 -99.463897801 -13.7087621709 0
73 1 1 -98.7467897053 -13.4890897351 0
74 1 1 -98.007840228 -13.3608178754 0
75 1 1 -97.3091476292 -13.0881850594 0
76 1 1 -96.5982880809 -12.8490643731 0
77 1 1 -95.8729631354 -12.6582667752 0
78 1 1 -95.1752725642 -12.383079808 0
79 1 1 -94.4679138458 -12.1337935399 0
80 1 1 -93.774167441 -11.8488094598 0
81 1 1 -93.1464374616 -11.4383766724 0
82 1 1 -92.4983049367 -11.0609853237 0
83 1 1 -91.8008178142 -10.7852831039 0
84 1 1 -91.1619086168 -10.3924790338 0
85 1 1 -90.5510180434 -9.95737823247 0
86 1 1 -89.9519906516 -9.50608433279 0
87 1 1 -89.3393811845 -9.07340703876 0
88 1 1 -88.7575210601 -8.60018531936 0
89 1 1 -88.1167687085 -8.21039508869 0
90 1 1 -87.4609313415 -7.84655810863 0
91 1 1 -86.8859840233 -7.36496120118 0
92 1 1 -86.3215598271 -6.87107323143 0
93 1 1 -85.7053492376 -6.44354018066 0
94 1 1 -85.1748868045 -5.91334247502 0
95 1 1 -84.6966978891 -5.33555760053 0
96 1 1 -84.1458246544 -4.82659917465 0
97 1 1 -83.6323241621 -4.27995738668 0
98 1 1 -83.1199333189 -3.73227534043 0
99 1 1 -82.6076298789 -3.18451153603 0
100 1 1 -82.1223621163 -2.61265910877 0
101 1 1 -81.5626251925 -2.11346518233 0
102 1 1 -80.9314165808 -1.70840260885 0
103 1 1 -80.2588381963 -1.37653167501 0
104 1 1 -79.5829518825 -1.05145062233 0
105 1 1 -78.9055986409 -0.729437290058 0
106 1 1 -78.2420814056 -0.379801939376 0
107 1 1 -77.5332165147 -0.134831397328 0
108 1 1 -76.8040802392 0.0408395781436 0
109 1 1 -76.074676949 0.215398565992 0
110 1 1 -75.3341352447 0.334133498528 0
111 1 1 -74.5949420624 0.46099341867 0
112 1 1 -73.8531932799 0.571938195975 0
113 1 1 -73.1449491745 0.818697769669 0
114 1 1 -72.4713180613 1.14842663297 0
115 1 1 -71.8082568322 1.49892600031 0
116 1 1 -71.1280410027 1.81484754963 0
117 1 1 -70.440236443 2.11388749279 0
118 1 1 -69.7648724133 2.44005221708 0
119 1 1 -69.042872748 2.64307064805 0
120 1 1 -68.3366718166 2.8956181574 0
121 1 1 -67.6445228227 3.18446027729 0
122 1 1 -66.9419478526 3.44692629689 0
123 1 1 -66.2520639396 3.74113742273 0
124 1 1 -65.5320051004 3.95093558318 0
125 1 1 -64.8271223656 4.20713927183 0
126 1 1 -64.1202110417 4.45769142252 0
127 1 1 -63.4030230612 4.67710290945 0
128 1 1 -62.7040278318 4.94895888093 0
129 1 1 -62.008394073 5.22930451338 0
130 1 1 -61.2994385174 5.47401254381 0
131 1 1 -60.5763448877 5.67309946637 0
132 1 1 -59.838655882 5.80843213396 0
133 1 1 -59.10187198 5.94860874306 0
134 1 1 -58.36511751 6.08893996159 0
135 1 1 -57.6262961974 6.217947977 0
136 1 1 -56.8998790699 6.40454421738 0
137 1 1 -56.1528737454 6.47149976341 0
138 1 1 -55.4033331357 6.44525334572 0
139 1 1 -54.6557512673 6.38507569211 0
140 1 1 -53.9070273034 6.34134440073 0
141 1 1 -53.1666315519 6.22170272248 0
142 1 1 -52.4360788927 6.05201827363 0
143 1 1 -51.6861759434 6.03995317299 0
144 1 1 -50.9368691227 6.0077151767 0
145 1 1 -50.1870354261 5.99192190167 0
146 1 1 -49.4408876173 6.06783927374 0
147 1 1 -48.6935297675 6.13073795647 0
148 1 1 -47.9435913531 6.14034913193 0
149 1 1 -47.1936139858 6.14617565811 0
150 1 1 -46.4456585394 6.20151687506 0
151 1 1 -45.6959136751 6.221078022 0
152 1 1 -44.9609066295 6.37029143579 0
153 1 1 -44.2266888694 6.52334136506 0
154 1 1 -43.4809798723 6.60345435745 0
155 1 1 -42.7367291603 6.69614134528 0
156 1 1 -41.989960803 6.76569003714 0
157 1 1 -41.2444419019 6.84755314327 0
158 1 1 -40.4996823243 6.93605834923 0
159 1 1 -39.7590874634 7.05446127183 0
160 1 1 -39.0153956754 7.15153096077 0
161 1 1 -38.2860111504 7.32616834094 0
162 1 1 -37.5791522525 7.5768683578 0
163 1 1 -36.9565839097 7.99508918295 0
164 1 1 -36.3112726331 8.37728462549 0
165 1 1 -35.7116035516 8.82772551252 0
166 1 1 -35.1859724073 9.3627132695 0
167 1 1 -34.6584808306 9.89586675257 0
168 1 1 -34.0843463272 10.3784323668 0
169 1 1 -33.4933068166 10.8401382222 0
170 1 1 -32.8607184326 11.2430425985 0
171 1 1 -32.1683292842 11.5313085644 0
172 1 1 -31.4688471709 11.8019093281 0
173 1 1 -30.7849086329 12.1096885935 0
174 1 1 -30.0642578886 12.3174444711 0
175 1 1 -29.316153198 12.3707302283 0
176 1 1 -28.5765623236 12.4952506621 0
177 1 1 -27.842970892 12.6512750561 0
178 1 1 -27.0972635444 12.7314034013 0
179 1 1 -26.367773156 12.9055980431 0
180 1 1 -25.6217391437 12.9826256522 0
181 1 1 -24.8843211825 13.1194275179 0
182 1 1 -24.161668191 13.3201079949 0
183 1 1 -23.4327885014 13.4968405559 0
184 1 1 -22.6878689727 13.5839892554 0
185 1 1 -21.985783755 13.8477625426 0
186 1 1 -21.3128352133 14.1788822493 0
187 1 1 -20.6975600783 14.6077604468 0
188 1 1 -20.1341709719 15.1028288409 0
189 1 1 -19.5438593624 15.565464987 0
190 1 1 -18.9625697939 16.0393873831 0
191 1 1 -18.3917778447 16.5259020805 0
192 1 1 -17.942159837 17.1261883847 0
193 1 1 -17.4722785725 17.7107494143 0
194 1 1 -17.0150683566 18.3052734412 0
195 1 1 -16.6008211443 18.9304928004 0
196 1 1 -16.2816888297 19.6092081794 0
197 1 1 -16.1214373365 20.3418878222 0
198 1 1 -15.9714477149 21.0767368634 0
199 1 1 -15.7623355523 21.7969952222 0
200 1 1 -15.6212682681 22.5336091111 0
201 1 1 -15.5019821796 23.2740622353 0
202 1 1 -15.3013648493 23.9967327597 0
203 1 1 -15.1012607163 24.7195455542 0
204 1 1 -14.8037384622 25.4080079775 0
205 1 1 -14.4744178503 26.0818387683 0
206 1 1 -14.1588284804 26.7622087776 0
207 1 1 -13.9309889613 27.4767639914 0
208 1 1 -13.6079711736 28.1536388017 0
209 1 1 -13.2711061589 28.8237298118 0
210 1 1 -13.0143211233 29.5284009731 0
211 1 1 -12.7837228723 30.2420706772 0
212 1 1 -12.5587866047 30.9575451181 0
213 1 1 -12.3796164428 31.6858294397 0
214 1 1 -12.3224632188 32.4336486083 0
215 1 1 -12.2505414541 33.1801921501 0
216 1 1 -12.2375271131 33.9300792262 0
217 1 1 -12.1050215071 34.6682812747 0
218 1 1 -11.8297590571 35.3659420688 0
219 1 1 -11.6748830717 36.0997768112 0
220 1 1 -11.4494310473 36.8150889002 0
221 1 1 -11.1805913967 37.5152497691 0
222 1 1 -10.9908946431 38.2408634002 0
223 1 1 -10.8060640958 38.9677317987 0
224 1 1 -10.5313682027 39.6656158624 0
225 1 1 -10.1894084323 40.3331213046 0
226 1 1 -9.84649848424 41.0001391211 0
227 1 1 -9.44378640477 41.6328499406 0
228 1 1 -8.96750819478 42.2122108529 0
229 1 1 -8.40502085252 42.7083035758 0
230 1 1 -7.92537087014 43.2848761163 0
231 1 1 -7.41804135643 43.8372498707 0
232 1 1 -6.78424212 44.2382467882 0
233 1 1 -6.12216419195 44.5906000445 0
234 1 1 -5.4124690769 44.8331548706 0
235 1 1 -4.68464272779 45.0141764316 0
236 1 1 -3.96692901253 45.2318620373 0
237 1 1 -3.26424631188 45.4940395005 0
238 1 1 -2.53682786888 45.6766932953 0
239 1 1 -1.81136140779 45.8669521029 0
240 1 1 -1.08508208727 46.0540840044 0
241 1 1 -0.378617395822 46.3058927408 0
242 1 1 0.314100709234 46.5933673083 0
243 1 1 1.0483720928 46.7461597665 0
244 1 1 1.79139230824 46.8482428671 0
245 1 1 2.54090785288 46.875195573 0
246 1 1 3.2904148786 46.902384144 0
247 1 1 4.03729750171 46.8340734764 0
248 1 1 4.78532611862 46.7797302315 0
249 1 1 5.49484963458 46.5366738999 0
250 1 1 6.17369810818 46.2178247978 0
251 1 1 6.84716435776 45.8877593336 0
252 1 1 7.51013022804 45.5370796295 0
253 1 1 8.15071268013 45.1470102484 0
254 1 1 8.78699570183 44.7499662757 0
255 1 1 9.40192099726 44.3205866289 0
256 1 1 10.0264287422 43.9052673825 0
257 1 1 10.6952938673 43.5659748178 0
258 1 1 11.3076413159 43.132926781 0
259 1 1 11.9453466076 42.7381712098 0
260 1 1 12.5874082539 42.350541435 0
261 1 1 13.1455069246 41.8495166116 0
262 1 1 13.6559951873 41.3000607592 0
263 1 1 14.1536388115 40.7389450641 0
264 1 1 14.6563551629 40.1823695795 0
265 1 1 15.2989976645 39.7957035541 0
266 1 1 15.9199610222 39.3751033778 0


Bonds

0 1 1 2
1 2 2 3
2 3 3 4
3 1 4 5
4 2 5 6
5 3 6 7
6 1 7 8
7 2 8 9
8 3 9 10
9 1 10 11
10 2 11 12
11 3 12 13
12 1 13 14
13 2 14 15
14 3 15 16
15 1 16 17
16 2 17 18
17 3 18 19
18 1 19 20
19 2 20 21
20 3 21 22
21 1 22 23
22 2 23 24
23 3 24 25
24 1 25 26
25 2 26 27
26 3 27 28
27 1 28 29
28 2 29 30
29 3 30 31
30 1 31 32
31 2 32 33
32 3 33 34
33 1 34 35
34 2 35 36
35 3 36 37
36 1 37 38
37 2 38 39
38 3 39 40
39 1 40 41
40 2 41 42
41 3 42 43
42 1 43 44
43 2 44 45
44 3 45 46
45 1 46 47
46 2 47 48
47 3 48 49
48 1 49 50
49 2 50 51
50 3 51 52
51 1 52 53
52 2 53 54
53 3 54 55
54 1 55 56
55 2 56 57
56 3 57 58
57 1 58 59
58 2 59 60
59 3 60 61
60 1 61 62
61 2 62 63
62 3 63 64
63 1 64 65
64 2 65 66
65 3 66 67
66 1 67 68
67 2 68 69
68 3 69 70
69 1 70 71
70 2 71 72
71 3 72 73
72 1 73 74
73 2 74 75
74 3 75 76
75 1 76 77
76 2 77 78
77 3 78 79
78 1 79 80
79 2 80 81
80 3 81 82
81 1 82 83
82 2 83 84
83 3 84 85
84 1 85 86
85 2 86 87
86 3 87 88
87 1 88 89
88 2 89 90
89 3 90 91
90 1 91 92
91 2 92 93
92 3 93 94
93 1 94 95
94 2 95 96
95 3 96 97
96 1 97 98
97 2 98 99
98 3 99 100
99 1 100 101
100 2 101 102
101 3 102 103
102 1 103 104
103 2 104 105
104 3 105 106
105 1 106 107
106 2 107 108
107 3 108 109
108 1 109 110
109 2 110 111
110 3 111 112
111 1 112 113
112 2 113 114
113 3 114 115
114 1 115 116
115 2 116 117
116 3 117 118
117 1 118 119
118 2 119 120
119 3 120 121
120 1 121 122
121 2 122 123
122 3 123 124
123 1 124 125
124 2 125 126
125 3 126 127
126 1 127 128
127 2 128 129
128 3 129 130
129 1 130 131
130 2 131 132
131 3 132 133
132 1 133 134
133 2 134 135
134 3 135 136
135 1 136 137
136 2 137 138
137 3 138 139
138 1 139 140
139 2 140 141
140 3 141 142
141 1 142 143
142 2 143 144
143 3 144 145
144 1 145 146
145 2 146 147
146 3 147 148
147 1 148 149
148 2 149 150
149 3 150 151
150 1 151 152
151 2 152 153
152 3 153 154
153 1 154 155
154 2 155 156
155 3 156 157
156 1 157 158
157 2 158 159
158 3 159 160
159 1 160 161
160 2 161 162
161 3 162 163
162 1 163 164
163 2 164 165
164 3 165 166
165 1 166 167
166 2 167 168
167 3 168 169
168 1 169 170
169 2 170 171
170 3 171 172
171 1 172 173
172 2 173 174
173 3 174 175
174 1 175 176
175 2 176 177
176 3 177 178
177 1 178 179
178 2 179 180
179 3 180 181
180 1 181 182
181 2 182 183
182 3 183 184
183 1 184 185
184 2 185 186
185 3 186 187
186 1 187 188
187 2 188 189
188 3 189 190
189 1 190 191
190 2 191 192
191 3 192 193
192 1 193 194
193 2 194 195
194 3 195 196
195 1 196 197
196 2 197 198
197 3 198 199
198 1 199 200
199 2 200 201
200 3 201 202
201 1 202 203
202 2 203 204
203 3 204 205
204 1 205 206
205 2 206 207
206 3 207 208
207 1 208 209
208 2 209 210
209 3 210 211
210 1 211 212
211 2 212 213
212 3 213 214
213 1 214 215
214 2 215 216
215 3 216 217
216 1 217 218
217 2 218 219
218 3 219 220
219 1 220 221
220 2 221 222
221 3 222 223
222 1 223 224
223 2 224 225
224 3 225 226
225 1 226 227
226 2 227 228
227 3 228 229
228 1 229 230
229 2 230 231
230 3 231 232
231 1 232 233
232 2 233 234
233 3 234 235
234 1 235 236
235 2 236 237
236 3 237 238
237 1 238 239
238 2 239 240
239 3 240 241
240 1 241 242
241 2 242 243
242 3 243 244
243 1 244 245
244 2 245 246
245 3 246 247
246 1 247 248
247 2 248 249
248 3 249 250
249 1 250 251
250 2 251 252
251 3 252 253
252 1 253 254
253 2 254 255
254 3 255 256
255 1 256 257
256 2 257 258
257 3 258 259
258 1 259 260
259 2 260 261
260 3 261 262
261 1 262 263
262 2 263 264
263 3 264 265
264 1 265 266


Angles

1 1 1 2 3
2 1 2 3 4
3 1 3 4 5
4 1 4 5 6
5 1 5 6 7
6 1 6 7 8
7 1 7 8 9
8 1 8 9 10
9 1 9 10 11
10 1 10 11 12
11 1 11 12 13
12 1 12 13 14
13 1 13 14 15
14 1 14 15 16
15 1 15 16 17
16 1 16 17 18
17 1 17 18 19
18 1 18 19 20
19 1 19 20 21
20 1 20 21 22
21 1 21 22 23
22 1 22 23 24
23 1 23 24 25
24 1 24 25 26
25 1 25 26 27
26 1 26 27 28
27 1 27 28 29
28 1 28 29 30
29 1 29 30 31
30 1 30 31 32
31 1 31 32 33
32 1 32 33 34
33 1 33 34 35
34 1 34 35 36
35 1 35 36 37
36 1 36 37 38
37 1 37 38 39
38 1 38 39 40
39 1 39 40 41
40 1 40 41 42
41 1 41 42 43
42 1 42 43 44
43 1 43 44 45
44 1 44 45 46
45 1 45 46 47
46 1 46 47 48
47 1 47 48 49
48 1 48 49 50
49 1 49 50 51
50 1 50 51 52
51 1 51 52 53
52 1 52 53 54
53 1 53 54 55
54 1 54 55 56
55 1 55 56 57
56 1 56 57 58
57 1 57 58 59
58 1 58 59 60
59 1 59 60 61
60 1 60 61 62
61 1 61 62 63
62 1 62 63 64
63 1 63 64 65
64 1 64 65 66
65 1 65 66 67
66 1 66 67 68
67 1 67 68 69
68 1 68 69 70
69 1 69 70 71
70 1 70 71 72
71 1 71 72 73
72 1 72 73 74
73 1 73 74 75
74 1 74 75 76
75 1 75 76 77
76 1 76 77 78
77 1 77 78 79
78 1 78 79 80
79 1 79 80 81
80 1 80 81 82
81 1 81 82 83
82 1 82 83 84
83 1 83 84 85
84 1 84 85 86
85 1 85 86 87
86 1 86 87 88
87 1 87 88 89
88 1 88 89 90
89 1 89 90 91
90 1 90 91 92
91 1 91 92 93
92 1 92 93 94
93 1 93 94 95
94 1 94 95 96
95 1 95 96 97
96 1 96 97 98
97 1 97 98 99
98 1 98 99 100
99 1 99 100 101
100 1 100 101 102
101 1 101 102 103
102 1 102 103 104
103 1 103 104 105
104 1 104 105 106
105 1 105 106 107
106 1 106 107 108
107 1 107 108 109
108 1 108 109 110
109 1 109 110 111
110 1 110 111 112
111 1 111 112 113
112 1 112 113 114
113 1 113 114 115
114 1 114 115 116
115 1 115 116 117
116 1 116 117 118
117 1 117 118 119
118 1 118 119 120
119 1 119 120 121
120 1 120 121 122
121 1 121 122 123
122 1 122 123 124
123 1 123 124 125
124 1 124 125 126
125 1 125 126 127
126 1 126 127 128
127 1 127 128 129
128 1 128 129 130
129 1 129 130 131
130 1 130 131 132
131 1 131 132 133
132 1 132 133 134
133 1 133 134 135
134 1 134 135 136
135 1 135 136 137
136 1 136 137 138
137 1 137 138 139
138 1 138 139 140
139 1 139 140 141
140 1 140 141 142
141 1 141 142 143
142 1 142 143 144
143 1 143 144 145
144 1 144 145 146
145 1 145 146 147
146 1 146 147 148
147 1 147 148 149
148 1 148 149 150
149 1 149 150 151
150 1 150 151 152
151 1 151 152 153
152 1 152 153 154
153 1 153 154 155
154 1 154 155 156
155 1 155 156 157
156 1 156 157 158
157 1 157 158 159
158 1 158 159 160
159 1 159 160 161
160 1 160 161 162
161 1 161 162 163
162 1 162 163 164
163 1 163 164 165
164 1 164 165 166
165 1 165 166 167
166 1 166 167 168
167 1 167 168 169
168 1 168 169 170
169 1 169 170 171
170 1 170 171 172
171 1 171 172 173
172 1 172 173 174
173 1 173 174 175
174 1 174 175 176
175 1 175 176 177
176 1 176 177 178
177 1 177 178 179
178 1 178 179 180
179 1 179 180 181
180 1 180 181 182
181 1 181 182 183
182 1 182 183 184
183 1 183 184 185
184 1 184 185 186
185 1 185 186 187
186 1 186 187 188
187 1 187 188 189
188 1 188 189 190
189 1 189 190 191
190 1 190 191 192
191 1 191 192 193
192 1 192 193 194
193 1 193 194 195
194 1 194 195 196
195 1 195 196 197
196 1 196 197 198
197 1 197 198 199
198 1 198 199 200
199 1 199 200 201
200 1 200 201 202
201 1 201 202 203
202 1 202 203 204
203 1 203 204 205
204 1 204 205 206
205 1 205 206 207
206 1 206 207 208
207 1 207 208 209
208 1 208 209 210
209 1 209 210 211
210 1 210 211 212
211 1 211 212 213
212 1 212 213 214
213 1 213 214 215
214 1 214 215 216
215 1 215 216 217
216 1 216 217 218
217 1 217 218 219
218 1 218 219 220
219 1 219 220 221
220 1 220 221 222
221 1 221 222 223
222 1 222 223 224
223 1 223 224 225
224 1 224 225 226
225 1 225 226 227
226 1 226 227 228
227 1 227 228 229
228 1 228 229 230
229 1 229 230 231
230 1 230 231 232
231 1 231 232 233
232 1 232 233 234
233 1 233 234 235
234 1 234 235 236
235 1 235 236 237
236 1 236 237 238
237 1 237 238 239
238 1 238 239 240
239 1 239 240 241
240 1 240 241 242
241 1 241 242 243
242 1 242 243 244
243 1 243 244 245
244 1 244 245 246
245 1 245 246 247
246 1 246 247 248
247 1 247 248 249
248 1 248 249 250
249 1 249 250 251
250 1 250 251 252
251 1 251 252 253
252 1 252 253 254
253 1 253 254 255
254 1 254 255 256
255 1 255 256 257
256 1 256 257 258
257 1 257 258 259
258 1 258 259 260
259 1 259 260 261
260 1 260 261 262
261 1 261 262 263
262 1 262 263 264
263 1 263 264 265
264 1 264 265 266
