#Actin filament

40 atoms
39 bonds
38 angles

1 atom types
3 bond types
1 angle types

-500 500 xlo xhi
-500 500 ylo yhi
-0.05 0.05 zlo zhi

Masses

1 1


Atoms

1 1 1 -150 0 0
2 1 1 -145.005117826 0.226168234533 0
3 1 1 -140.04168799 -0.377457695136 0
4 1 1 -135.048492211 -0.638217945336 0
5 1 1 -130.057293513 -0.341678644082 0
6 1 1 -125.057602682 -0.397280779402 0
7 1 1 -120.064692751 -0.131103362344 0
8 1 1 -115.065507529 -0.0408419806863 0
9 1 1 -110.07804852 -0.394752474635 0
10 1 1 -105.113040351 -0.985255547254 0
11 1 1 -100.135222603 -1.45571327087 0
12 1 1 -95.1652333985 -2.00271172205 0
13 1 1 -90.2527814387 -2.93427800663 0
14 1 1 -85.3917368228 -4.1048527553 0
15 1 1 -80.4783726151 -5.03159552568 0
16 1 1 -75.5721459312 -5.99541071889 0
17 1 1 -70.6117461498 -6.62345053314 0
18 1 1 -65.6206661699 -6.9219813261 0
19 1 1 -60.6877083262 -7.73802477606 0
20 1 1 -55.9130930228 -9.22229183595 0
21 1 1 -51.2130188017 -10.9279595398 0
22 1 1 -46.9357076439 -13.5172855639 0
23 1 1 -42.1656934372 -15.0162733784 0
24 1 1 -37.6841796099 -17.2334864524 0
25 1 1 -33.2948480385 -19.6280152904 0
26 1 1 -29.0392057294 -22.2528026222 0
27 1 1 -25.0027093185 -25.2035138458 0
28 1 1 -20.4419362578 -27.2527451868 0
29 1 1 -15.620116702 -28.5756420729 0
30 1 1 -10.7540042751 -29.7249678962 0
31 1 1 -5.93639712954 -31.063123863 0
32 1 1 -1.10399672789 -32.3468319132 0
33 1 1 3.59375049561 -34.0588982157 0
34 1 1 8.48511818717 -35.0954897968 0
35 1 1 13.3870485397 -36.0809231122 0
36 1 1 18.2309882095 -37.3203780227 0
37 1 1 22.7811632564 -39.3930350234 0
38 1 1 27.4139401139 -41.2738270345 0
39 1 1 31.8864186818 -43.5092096549 0
40 1 1 36.539649088 -45.3388125589 0


Bonds

0 1 1 2
1 2 2 3
2 3 3 4
3 1 4 5
4 2 5 6
5 3 6 7
6 1 7 8
7 2 8 9
8 3 9 10
9 1 10 11
10 2 11 12
11 3 12 13
12 1 13 14
13 2 14 15
14 3 15 16
15 1 16 17
16 2 17 18
17 3 18 19
18 1 19 20
19 2 20 21
20 3 21 22
21 1 22 23
22 2 23 24
23 3 24 25
24 1 25 26
25 2 26 27
26 3 27 28
27 1 28 29
28 2 29 30
29 3 30 31
30 1 31 32
31 2 32 33
32 3 33 34
33 1 34 35
34 2 35 36
35 3 36 37
36 1 37 38
37 2 38 39
38 3 39 40


Angles

1 1 1 2 3
2 1 2 3 4
3 1 3 4 5
4 1 4 5 6
5 1 5 6 7
6 1 6 7 8
7 1 7 8 9
8 1 8 9 10
9 1 9 10 11
10 1 10 11 12
11 1 11 12 13
12 1 12 13 14
13 1 13 14 15
14 1 14 15 16
15 1 15 16 17
16 1 16 17 18
17 1 17 18 19
18 1 18 19 20
19 1 19 20 21
20 1 20 21 22
21 1 21 22 23
22 1 22 23 24
23 1 23 24 25
24 1 24 25 26
25 1 25 26 27
26 1 26 27 28
27 1 27 28 29
28 1 28 29 30
29 1 29 30 31
30 1 30 31 32
31 1 31 32 33
32 1 32 33 34
33 1 33 34 35
34 1 34 35 36
35 1 35 36 37
36 1 36 37 38
37 1 37 38 39
38 1 38 39 40
