#Actin filament

6 atoms
5 bonds
4 angles

1 atom types
3 bond types
1 angle types

-500 500 xlo xhi
-500 500 ylo yhi
-0.05 0.05 zlo zhi

Masses

1 1


Atoms

1 1 1 -150 0 0
2 1 1 -121.211156235 -3.49320406887 0
3 1 1 -92.211174777 -3.46041009659 0
4 1 1 -63.3074955746 -1.09877325652 0
5 1 1 -34.3078176483 -0.962097845078 0
6 1 1 -5.30960095751 -1.28370125931 0


Bonds

0 1 1 2
1 2 2 3
2 3 3 4
3 1 4 5
4 2 5 6


Angles

1 1 1 2 3
2 1 2 3 4
3 1 3 4 5
4 1 4 5 6
