#Actin filament

15 atoms
14 bonds
13 angles

1 atom types
3 bond types
1 angle types

-500 500 xlo xhi
-500 500 ylo yhi
-0.05 0.05 zlo zhi

Masses

1 1


Atoms

1 1 1 -150 0 0
2 1 1 -137.061872637 1.26683082772 0
3 1 1 -124.621348517 5.03954332766 0
4 1 1 -113.189939971 11.230092468 0
5 1 1 -102.599251101 18.7691447472 0
6 1 1 -93.2925880826 27.8458194386 0
7 1 1 -83.9327086614 36.8676073557 0
8 1 1 -74.8891125416 46.2064171954 0
9 1 1 -66.8629146211 56.4328607092 0
10 1 1 -60.1566710797 67.5695701677 0
11 1 1 -52.9840770011 78.4117975304 0
12 1 1 -45.324577929 88.9157050873 0
13 1 1 -38.8521043131 100.189882897 0
14 1 1 -32.0690693954 111.279988276 0
15 1 1 -26.1555160516 122.857116022 0


Bonds

0 1 1 2
1 2 2 3
2 3 3 4
3 1 4 5
4 2 5 6
5 3 6 7
6 1 7 8
7 2 8 9
8 3 9 10
9 1 10 11
10 2 11 12
11 3 12 13
12 1 13 14
13 2 14 15


Angles

1 1 1 2 3
2 1 2 3 4
3 1 3 4 5
4 1 4 5 6
5 1 5 6 7
6 1 6 7 8
7 1 7 8 9
8 1 8 9 10
9 1 9 10 11
10 1 10 11 12
11 1 11 12 13
12 1 12 13 14
13 1 13 14 15
