#Actin filament

909 atoms
908 bonds
907 angles

1 atom types
3 bond types
1 angle types

-500 500 xlo xhi
-500 500 ylo yhi
-0.05 0.05 zlo zhi

Masses

1 1


Atoms

1 1 1 -150 0 0
2 1 1 -149.780480761 0.0145362833958 0
3 1 1 -149.563049725 0.0480585870378 0
4 1 1 -149.347131628 0.0902412297918 0
5 1 1 -149.128402021 0.113849685507 0
6 1 1 -148.913066821 0.158913545955 0
7 1 1 -148.700006721 0.213735016598 0
8 1 1 -148.487470781 0.270554679471 0
9 1 1 -148.280431501 0.344950489645 0
10 1 1 -148.070902737 0.412015364112 0
11 1 1 -147.861384661 0.479113616276 0
12 1 1 -147.648062727 0.532907227392 0
13 1 1 -147.459683202 0.646543289631 0
14 1 1 -147.270115947 0.758186721198 0
15 1 1 -147.073166526 0.856222048725 0
16 1 1 -146.88225461 0.965550180859 0
17 1 1 -146.696649463 1.08366338741 0
18 1 1 -146.497324222 1.17677325877 0
19 1 1 -146.323040694 1.31103141203 0
20 1 1 -146.140027825 1.43312273068 0
21 1 1 -145.972856127 1.57613889482 0
22 1 1 -145.814042774 1.72838316922 0
23 1 1 -145.707779505 1.92101784292 0
24 1 1 -145.584099287 2.1029607011 0
25 1 1 -145.44066799 2.26977635747 0
26 1 1 -145.288377301 2.42854520232 0
27 1 1 -145.162445264 2.60893678157 0
28 1 1 -145.033258589 2.78701205555 0
29 1 1 -144.895373369 2.95844036698 0
30 1 1 -144.764751022 3.13546523116 0
31 1 1 -144.61133232 3.29314434121 0
32 1 1 -144.460946552 3.45371868828 0
33 1 1 -144.293745782 3.5967008636 0
34 1 1 -144.121092109 3.73304861463 0
35 1 1 -143.947808961 3.86859547195 0
36 1 1 -143.757696684 3.97930826275 0
37 1 1 -143.580030991 4.1090576429 0
38 1 1 -143.417978088 4.25784896192 0
39 1 1 -143.247670268 4.39711577896 0
40 1 1 -143.081037504 4.54075951186 0
41 1 1 -142.920469809 4.69115238167 0
42 1 1 -142.800876182 4.87580709856 0
43 1 1 -142.70208767 5.07237980729 0
44 1 1 -142.587527708 5.2601989094 0
45 1 1 -142.484953889 5.45482319301 0
46 1 1 -142.38871356 5.65265594801 0
47 1 1 -142.261077044 5.83184556807 0
48 1 1 -142.146977623 6.01994480301 0
49 1 1 -142.010280262 6.19232180653 0
50 1 1 -141.874956913 6.36577955708 0
51 1 1 -141.741021184 6.54031098873 0
52 1 1 -141.607498836 6.71515887267 0
53 1 1 -141.498635409 6.90633615761 0
54 1 1 -141.411867316 7.10850266815 0
55 1 1 -141.345410027 7.31822493395 0
56 1 1 -141.274385242 7.52644472158 0
57 1 1 -141.227628065 7.74141859524 0
58 1 1 -141.183657248 7.95697964756 0
59 1 1 -141.164060141 8.17610507595 0
60 1 1 -141.138811947 8.39465147539 0
61 1 1 -141.072855146 8.60453168045 0
62 1 1 -140.983598805 8.80561202632 0
63 1 1 -140.92511286 9.0176954869 0
64 1 1 -140.854654202 9.22610752471 0
65 1 1 -140.779869946 9.43300681211 0
66 1 1 -140.694998141 9.63597670298 0
67 1 1 -140.61680319 9.84161120794 0
68 1 1 -140.513631331 10.0359191273 0
69 1 1 -140.406554792 10.2281029321 0
70 1 1 -140.304177954 10.4228309042 0
71 1 1 -140.188475725 10.6099484985 0
72 1 1 -140.085810387 10.804524521 0
73 1 1 -139.950950876 10.9783431397 0
74 1 1 -139.815543609 11.1517353889 0
75 1 1 -139.684377461 11.328357702 0
76 1 1 -139.572928691 11.5180394663 0
77 1 1 -139.448127328 11.6992151267 0
78 1 1 -139.344359752 11.8932055647 0
79 1 1 -139.223222296 12.0768511928 0
80 1 1 -139.098593149 12.2581453619 0
81 1 1 -138.956835627 12.4263856815 0
82 1 1 -138.798973718 12.5796162835 0
83 1 1 -138.634331124 12.7255368664 0
84 1 1 -138.466051718 12.8672479859 0
85 1 1 -138.304598568 13.0166898823 0
86 1 1 -138.181459866 13.1989996739 0
87 1 1 -138.077078524 13.3926605509 0
88 1 1 -137.961837585 13.580062595 0
89 1 1 -137.821125813 13.7491785233 0
90 1 1 -137.693275333 13.928215544 0
91 1 1 -137.553455388 14.0980695485 0
92 1 1 -137.420762332 14.2735476185 0
93 1 1 -137.278260692 14.441158127 0
94 1 1 -137.146243148 14.6171449677 0
95 1 1 -136.968212208 14.7463927315 0
96 1 1 -136.810861718 14.9001484567 0
97 1 1 -136.655022909 15.0554361441 0
98 1 1 -136.49918417 15.2107239005 0
99 1 1 -136.32424445 15.344125904 0
100 1 1 -136.142435281 15.4680025604 0
101 1 1 -135.97387194 15.6093758247 0
102 1 1 -135.796569748 15.739621488 0
103 1 1 -135.602479313 15.8432019073 0
104 1 1 -135.40119701 15.9320018761 0
105 1 1 -135.184824302 15.9717869367 0
106 1 1 -134.969989941 16.0191809998 0
107 1 1 -134.752102704 16.0495973163 0
108 1 1 -134.532624088 16.0647345912 0
109 1 1 -134.314067995 16.0898987343 0
110 1 1 -134.10094885 16.1444902186 0
111 1 1 -133.88341739 16.1773545403 0
112 1 1 -133.674997374 16.2477895947 0
113 1 1 -133.477115593 16.3439290808 0
114 1 1 -133.272741314 16.4253609806 0
115 1 1 -133.068045638 16.5059815733 0
116 1 1 -132.85329946 16.5537736156 0
117 1 1 -132.633978351 16.5710435623 0
118 1 1 -132.41424885 16.5819498197 0
119 1 1 -132.194712457 16.5962247005 0
120 1 1 -131.977983461 16.6340207591 0
121 1 1 -131.771890574 16.7109994705 0
122 1 1 -131.563227455 16.7807110377 0
123 1 1 -131.345051401 16.8089813365 0
124 1 1 -131.126649759 16.7825101744 0
125 1 1 -130.907836525 16.7596898182 0
126 1 1 -130.691700323 16.7186393356 0
127 1 1 -130.481283102 16.6544163389 0
128 1 1 -130.278717948 16.5685830213 0
129 1 1 -130.102803747 16.4364687008 0
130 1 1 -129.919503161 16.3148097705 0
131 1 1 -129.730365941 16.2024393478 0
132 1 1 -129.539477089 16.0930709507 0
133 1 1 -129.354102489 15.9745962372 0
134 1 1 -129.174375846 15.8477170279 0
135 1 1 -128.980093936 15.7444961997 0
136 1 1 -128.776325007 15.6615611429 0
137 1 1 -128.603993342 15.5248066285 0
138 1 1 -128.443221334 15.3746321915 0
139 1 1 -128.27119991 15.2374876338 0
140 1 1 -128.099647101 15.0997573405 0
141 1 1 -127.929264248 14.960582331 0
142 1 1 -127.741083848 14.8466168227 0
143 1 1 -127.550531821 14.7366626272 0
144 1 1 -127.358619979 14.6290994141 0
145 1 1 -127.184625255 14.4944671887 0
146 1 1 -127.007060432 14.3645798009 0
147 1 1 -126.829983249 14.2340283885 0
148 1 1 -126.639600578 14.1237812181 0
149 1 1 -126.46112255 13.9951515415 0
150 1 1 -126.281751812 13.8677696821 0
151 1 1 -126.097445164 13.7476403372 0
152 1 1 -125.920631431 13.616732339 0
153 1 1 -125.779154153 13.4482562877 0
154 1 1 -125.628926124 13.287534356 0
155 1 1 -125.485401133 13.1207993064 0
156 1 1 -125.318720473 12.977211153 0
157 1 1 -125.150062543 12.835950746 0
158 1 1 -124.973982836 12.7040570887 0
159 1 1 -124.782999849 12.5948531585 0
160 1 1 -124.599106891 12.4740914916 0
161 1 1 -124.427037496 12.3370071254 0
162 1 1 -124.237919958 12.2246035809 0
163 1 1 -124.046440412 12.1162726834 0
164 1 1 -123.862056774 11.9962615419 0
165 1 1 -123.690710253 11.8582746963 0
166 1 1 -123.533733963 11.704136951 0
167 1 1 -123.367924469 11.5595436879 0
168 1 1 -123.183863595 11.4390381088 0
169 1 1 -122.978385993 11.3604317783 0
170 1 1 -122.768085543 11.2958274392 0
171 1 1 -122.552341319 11.2527643487 0
172 1 1 -122.33713087 11.2071084327 0
173 1 1 -122.120671682 11.1677966021 0
174 1 1 -121.901807105 11.145474037 0
175 1 1 -121.682338424 11.1301933982 0
176 1 1 -121.462881478 11.1147451339 0
177 1 1 -121.24290516 11.1179730605 0
178 1 1 -121.023321937 11.1315085007 0
179 1 1 -120.803325204 11.1327074778 0
180 1 1 -120.585420177 11.1629960727 0
181 1 1 -120.367988941 11.1965170784 0
182 1 1 -120.14929316 11.2204368446 0
183 1 1 -119.929881193 11.2043623601 0
184 1 1 -119.71076866 11.1846215927 0
185 1 1 -119.490855883 11.178427216 0
186 1 1 -119.270914599 11.1733447358 0
187 1 1 -119.051013044 11.1667640075 0
188 1 1 -118.8316503 11.1500312081 0
189 1 1 -118.620485571 11.0883104078 0
190 1 1 -118.40403675 11.0489415384 0
191 1 1 -118.185842983 11.0208082815 0
192 1 1 -117.965957832 11.0279160377 0
193 1 1 -117.748054547 11.0582171663 0
194 1 1 -117.529330049 11.0818729125 0
195 1 1 -117.313021184 11.122003633 0
196 1 1 -117.096299518 11.1598417021 0
197 1 1 -116.87664103 11.1720952267 0
198 1 1 -116.656641116 11.1719017085 0
199 1 1 -116.4370671 11.1582177184 0
200 1 1 -116.217093334 11.1548203215 0
201 1 1 -115.997420923 11.1428189955 0
202 1 1 -115.777523752 11.1495446407 0
203 1 1 -115.559725826 11.1805940142 0
204 1 1 -115.341792624 11.2106792159 0
205 1 1 -115.133942237 11.2827778746 0
206 1 1 -114.917809753 11.3238479293 0
207 1 1 -114.701521652 11.3640904125 0
208 1 1 -114.494732735 11.4391793188 0
209 1 1 -114.291338457 11.5230289914 0
210 1 1 -114.097570207 11.6272108769 0
211 1 1 -113.897588024 11.7189012609 0
212 1 1 -113.699098608 11.8137798763 0
213 1 1 -113.494511889 11.8946765667 0
214 1 1 -113.279822725 11.9427240733 0
215 1 1 -113.063425522 11.982375684 0
216 1 1 -112.854658261 12.0517747527 0
217 1 1 -112.646544202 12.1231087451 0
218 1 1 -112.442925333 12.2064115426 0
219 1 1 -112.235072625 12.2785035111 0
220 1 1 -112.03253992 12.3644133683 0
221 1 1 -111.831116364 12.4528924666 0
222 1 1 -111.631921043 12.5462799614 0
223 1 1 -111.423054842 12.6153806852 0
224 1 1 -111.21637893 12.6907800716 0
225 1 1 -111.010626845 12.7686651123 0
226 1 1 -110.79268714 12.7987031739 0
227 1 1 -110.575475443 12.8336184796 0
228 1 1 -110.359895858 12.8774983445 0
229 1 1 -110.149616588 12.9421715875 0
230 1 1 -109.939239828 13.0065269991 0
231 1 1 -109.724285073 13.0533719911 0
232 1 1 -109.511484944 13.1091940745 0
233 1 1 -109.297021426 13.1582389495 0
234 1 1 -109.087876424 13.2264911877 0
235 1 1 -108.886067115 13.3140868656 0
236 1 1 -108.698481779 13.4290292072 0
237 1 1 -108.520199407 13.5579299275 0
238 1 1 -108.314078755 13.6348342614 0
239 1 1 -108.102296843 13.6944028947 0
240 1 1 -107.889822342 13.7514518746 0
241 1 1 -107.674421121 13.7961990988 0
242 1 1 -107.459811123 13.8445989846 0
243 1 1 -107.240882978 13.8662892426 0
244 1 1 -107.023158809 13.8978516588 0
245 1 1 -106.80358561 13.9115487469 0
246 1 1 -106.586086368 13.9446256234 0
247 1 1 -106.370900884 13.9903990596 0
248 1 1 -106.15337061 14.0232712342 0
249 1 1 -105.941211874 14.0814835247 0
250 1 1 -105.728815061 14.1388210676 0
251 1 1 -105.514660407 14.1891974954 0
252 1 1 -105.301965192 14.2454180021 0
253 1 1 -105.099608894 14.3317425561 0
254 1 1 -104.890787463 14.400978458 0
255 1 1 -104.679309012 14.4616156145 0
256 1 1 -104.465011059 14.5113789242 0
257 1 1 -104.275292326 14.6227647517 0
258 1 1 -104.092495247 14.7451789166 0
259 1 1 -103.920934915 14.8828998388 0
260 1 1 -103.753691462 15.0258320868 0
261 1 1 -103.571852523 15.1496650403 0
262 1 1 -103.407489346 15.2959002826 0
263 1 1 -103.253032873 15.452562971 0
264 1 1 -103.104965443 15.615277556 0
265 1 1 -102.945135291 15.7664540178 0
266 1 1 -102.780982105 15.9129249406 0
267 1 1 -102.632408942 16.0751778772 0
268 1 1 -102.490076062 16.2429317186 0
269 1 1 -102.370840212 16.4278176619 0
270 1 1 -102.2561844 16.6155782665 0
271 1 1 -102.151548119 16.809101518 0
272 1 1 -102.024413429 16.9886475303 0
273 1 1 -101.896434223 17.1675925579 0
274 1 1 -101.781528614 17.3552003961 0
275 1 1 -101.679466483 17.5500934988 0
276 1 1 -101.552088499 17.7294669895 0
277 1 1 -101.473211349 17.9348407833 0
278 1 1 -101.413189023 18.146494558 0
279 1 1 -101.365815643 18.3613334811 0
280 1 1 -101.316617036 18.575761784 0
281 1 1 -101.254606921 18.7868417348 0
282 1 1 -101.214943842 19.0032368367 0
283 1 1 -101.196249779 19.2224411524 0
284 1 1 -101.194959684 19.4424373698 0
285 1 1 -101.186975086 19.6622924271 0
286 1 1 -101.127530691 19.8741092439 0
287 1 1 -101.082857363 20.0895258026 0
288 1 1 -101.064729973 20.3087777074 0
289 1 1 -101.032728515 20.5264377787 0
290 1 1 -101.024759786 20.7462934117 0
291 1 1 -101.023666073 20.966290693 0
292 1 1 -101.014724571 21.1861089123 0
293 1 1 -101.003450279 21.4058198369 0
294 1 1 -100.98534118 21.6250732531 0
295 1 1 -100.957356254 21.8432860939 0
296 1 1 -100.890870795 22.052999431 0
297 1 1 -100.819957216 22.2612571182 0
298 1 1 -100.746419889 22.468602872 0
299 1 1 -100.6828061 22.67920507 0
300 1 1 -100.616948817 22.8891165234 0
301 1 1 -100.571450776 23.1043604044 0
302 1 1 -100.523955114 23.3191723269 0
303 1 1 -100.442453901 23.5235189743 0
304 1 1 -100.363503224 23.7288645137 0
305 1 1 -100.264596811 23.9253779267 0
306 1 1 -100.166250712 24.1221723497 0
307 1 1 -100.044426184 24.3053629177 0
308 1 1 -99.9623408915 24.5094756434 0
309 1 1 -99.9324171595 24.7274310753 0
310 1 1 -99.9205925663 24.9471130704 0
311 1 1 -99.8931096908 25.1653897104 0
312 1 1 -99.9001717307 25.3852763348 0
313 1 1 -99.8920894256 25.6051278218 0
314 1 1 -99.8931189722 25.8251254128 0
315 1 1 -99.8884369329 26.0450755856 0
316 1 1 -99.8985181356 26.2648444854 0
317 1 1 -99.9320606144 26.4822724094 0
318 1 1 -99.9623713068 26.7001743642 0
319 1 1 -99.9753837246 26.919789202 0
320 1 1 -100.030662537 27.1327311022 0
321 1 1 -100.076858974 27.3478261724 0
322 1 1 -100.119035049 27.5637455526 0
323 1 1 -100.15017727 27.7815302216 0
324 1 1 -100.190882372 27.9977317356 0
325 1 1 -100.214955576 28.2164106804 0
326 1 1 -100.241500149 28.4348034129 0
327 1 1 -100.269432219 28.6530230258 0
328 1 1 -100.266822648 28.8730075483 0
329 1 1 -100.220303811 29.0880331231 0
330 1 1 -100.179580034 29.3042311201 0
331 1 1 -100.141327468 29.5208800094 0
332 1 1 -100.095837755 29.7361256504 0
333 1 1 -100.044096511 29.9499546561 0
334 1 1 -99.9803607347 30.1605199687 0
335 1 1 -99.8976051248 30.3643618413 0
336 1 1 -99.8293700611 30.5735124475 0
337 1 1 -99.7575024373 30.7814428317 0
338 1 1 -99.6978700615 30.9932068035 0
339 1 1 -99.6128791377 31.196126844 0
340 1 1 -99.5026426495 31.3865157005 0
341 1 1 -99.39132127 31.5762722563 0
342 1 1 -99.2745122569 31.762700941 0
343 1 1 -99.1255288343 31.9245772512 0
344 1 1 -98.9850541035 32.0938901273 0
345 1 1 -98.8233522028 32.2430628302 0
346 1 1 -98.6708219177 32.4016015073 0
347 1 1 -98.5205726596 32.5623035933 0
348 1 1 -98.3476700203 32.6983354914 0
349 1 1 -98.1498432691 32.7945881616 0
350 1 1 -97.9638568538 32.91210009 0
351 1 1 -97.7804179247 33.0335503238 0
352 1 1 -97.5977072443 33.1560934072 0
353 1 1 -97.4205934926 33.2865952039 0
354 1 1 -97.242096944 33.415199178 0
355 1 1 -97.1122940145 33.5928257511 0
356 1 1 -96.9936130238 33.7780683554 0
357 1 1 -96.8555862596 33.9493827225 0
358 1 1 -96.7216667828 34.1239266245 0
359 1 1 -96.5745073755 34.287462886 0
360 1 1 -96.4350081082 34.4575803585 0
361 1 1 -96.2749432061 34.6085082456 0
362 1 1 -96.1296222776 34.7736803611 0
363 1 1 -96.0079449258 34.9569687188 0
364 1 1 -95.892056305 35.1439709315 0
365 1 1 -95.7751261031 35.3303236291 0
366 1 1 -95.6817742444 35.529535653 0
367 1 1 -95.5771473713 35.7230639906 0
368 1 1 -95.4617795289 35.9103879371 0
369 1 1 -95.32552957 36.0831187933 0
370 1 1 -95.1946702789 36.2599685768 0
371 1 1 -95.0434888324 36.4197940136 0
372 1 1 -94.903746367 36.5897117683 0
373 1 1 -94.7778950627 36.770159681 0
374 1 1 -94.6861799927 36.9701305437 0
375 1 1 -94.5507383288 37.1434959258 0
376 1 1 -94.4349834422 37.3305809498 0
377 1 1 -94.2935361671 37.4990821912 0
378 1 1 -94.1492716679 37.6651778091 0
379 1 1 -93.9781755156 37.803474977 0
380 1 1 -93.8120914477 37.947752773 0
381 1 1 -93.630476276 38.0719136743 0
382 1 1 -93.4388007489 38.1798974336 0
383 1 1 -93.240253055 38.2746540338 0
384 1 1 -93.0359240238 38.3561994016 0
385 1 1 -92.8394403686 38.455164917 0
386 1 1 -92.6321105261 38.5287470915 0
387 1 1 -92.435081731 38.6266227979 0
388 1 1 -92.2296313931 38.7053003593 0
389 1 1 -92.0288544846 38.7952371871 0
390 1 1 -91.8262195136 38.8809055507 0
391 1 1 -91.621340838 38.9610599536 0
392 1 1 -91.4146635242 39.036455497 0
393 1 1 -91.2031892983 39.097107387 0
394 1 1 -90.9912351815 39.1560603545 0
395 1 1 -90.7763567073 39.203254012 0
396 1 1 -90.5605153824 39.245827742 0
397 1 1 -90.3482002366 39.3034669549 0
398 1 1 -90.1384915516 39.3699670859 0
399 1 1 -89.949723783 39.4829570392 0
400 1 1 -89.7666497042 39.6049565542 0
401 1 1 -89.5787322729 39.7193551514 0
402 1 1 -89.3814244411 39.8166671213 0
403 1 1 -89.1807305244 39.9067889933 0
404 1 1 -88.9842813295 40.0058228956 0
405 1 1 -88.785486417 40.1000597395 0
406 1 1 -88.5802285937 40.1792381836 0
407 1 1 -88.3742660735 40.256565024 0
408 1 1 -88.1647676456 40.3237246006 0
409 1 1 -87.9520974002 40.3800394896 0
410 1 1 -87.7396812809 40.4373054678 0
411 1 1 -87.5220323218 40.4693824161 0
412 1 1 -87.3088175972 40.5235993987 0
413 1 1 -87.0961704749 40.5800015383 0
414 1 1 -86.8892807885 40.654812351 0
415 1 1 -86.6798730041 40.722254028 0
416 1 1 -86.4655561979 40.7719360829 0
417 1 1 -86.249845087 40.8151647386 0
418 1 1 -86.0310195092 40.8378664237 0
419 1 1 -85.8127984509 40.8657871994 0
420 1 1 -85.5950583632 40.8972396111 0
421 1 1 -85.3770839915 40.9270250653 0
422 1 1 -85.1573068639 40.9369252756 0
423 1 1 -84.9446087205 40.9931347037 0
424 1 1 -84.7331440536 41.0538199131 0
425 1 1 -84.5164700936 41.0919302144 0
426 1 1 -84.2979878843 41.1177279701 0
427 1 1 -84.0839800593 41.1687245471 0
428 1 1 -83.8792981833 41.2493801707 0
429 1 1 -83.670699368 41.3192839206 0
430 1 1 -83.4639134945 41.3943812078 0
431 1 1 -83.2525110149 41.4552826987 0
432 1 1 -83.0620007253 41.5653091936 0
433 1 1 -82.8777242142 41.6854847628 0
434 1 1 -82.6996781638 41.8147117102 0
435 1 1 -82.5174734159 41.938005789 0
436 1 1 -82.3200600251 42.0351034364 0
437 1 1 -82.1254649267 42.1377326119 0
438 1 1 -81.930778202 42.2401878666 0
439 1 1 -81.7196323481 42.3019732077 0
440 1 1 -81.5049266126 42.3499466084 0
441 1 1 -81.288474701 42.3892984822 0
442 1 1 -81.0701937685 42.4167472434 0
443 1 1 -80.8533399461 42.4538204107 0
444 1 1 -80.6479616239 42.532685769 0
445 1 1 -80.4449671145 42.6174986758 0
446 1 1 -80.2392441685 42.6954606505 0
447 1 1 -80.0529674724 42.8125118893 0
448 1 1 -79.8550721423 42.9086234823 0
449 1 1 -79.6600664678 43.0104703621 0
450 1 1 -79.4423025302 43.0417572201 0
451 1 1 -79.2305345303 43.1013752895 0
452 1 1 -79.020021343 43.1652830198 0
453 1 1 -78.8128200522 43.2392264107 0
454 1 1 -78.6109051403 43.3265783905 0
455 1 1 -78.4075869474 43.4106123863 0
456 1 1 -78.2119548445 43.5112507504 0
457 1 1 -78.0172445015 43.6136611126 0
458 1 1 -77.8270296738 43.7241976194 0
459 1 1 -77.6357181202 43.8328249155 0
460 1 1 -77.4322426631 43.9164774012 0
461 1 1 -77.2341564535 44.0121949731 0
462 1 1 -77.0661387543 44.154216284 0
463 1 1 -76.9103874094 44.3095916957 0
464 1 1 -76.7452848219 44.4549916118 0
465 1 1 -76.5495890214 44.5555060568 0
466 1 1 -76.3436448237 44.6328816825 0
467 1 1 -76.1305833827 44.6876979425 0
468 1 1 -75.9107016366 44.694910275 0
469 1 1 -75.6910426678 44.682665381 0
470 1 1 -75.4791719654 44.6234133307 0
471 1 1 -75.2669910241 44.5652820299 0
472 1 1 -75.0526440107 44.5157304624 0
473 1 1 -74.8389678233 44.4633617034 0
474 1 1 -74.6220880377 44.4264407255 0
475 1 1 -74.407770185 44.376763185 0
476 1 1 -74.190720563 44.3408541112 0
477 1 1 -73.9715529257 44.3217348344 0
478 1 1 -73.7551743484 44.2819817052 0
479 1 1 -73.5378878691 44.2475348484 0
480 1 1 -73.3212447274 44.2092497451 0
481 1 1 -73.1094938004 44.1495710645 0
482 1 1 -72.911028692 44.0546416131 0
483 1 1 -72.720137784 43.945276805 0
484 1 1 -72.5166744976 43.8615947215 0
485 1 1 -72.3209372424 43.7611610274 0
486 1 1 -72.1279389162 43.6555596728 0
487 1 1 -71.9445494273 43.5340347973 0
488 1 1 -71.7658128254 43.4057646639 0
489 1 1 -71.5897261039 43.2738803718 0
490 1 1 -71.4178559311 43.1365463129 0
491 1 1 -71.2510249938 42.9931327907 0
492 1 1 -71.1156824406 42.8196900241 0
493 1 1 -70.9651873745 42.6592181104 0
494 1 1 -70.8186384803 42.4951345292 0
495 1 1 -70.6506841969 42.3530382285 0
496 1 1 -70.4772221193 42.2177204261 0
497 1 1 -70.3114614277 42.073071219 0
498 1 1 -70.1514831064 41.9220515623 0
499 1 1 -69.9828762691 41.7807301753 0
500 1 1 -69.8166151961 41.6366563901 0
501 1 1 -69.648685335 41.4945312278 0
502 1 1 -69.4965115529 41.3356503288 0
503 1 1 -69.3584047368 41.1644004899 0
504 1 1 -69.2304556099 40.9854339541 0
505 1 1 -69.1414982966 40.7842211404 0
506 1 1 -69.0755956563 40.5743239227 0
507 1 1 -69.0293720323 40.3592346933 0
508 1 1 -68.9630999118 40.1494538409 0
509 1 1 -68.9092687236 39.9361413865 0
510 1 1 -68.8706505918 39.7195573615 0
511 1 1 -68.8218949343 39.5050279093 0
512 1 1 -68.7729875335 39.2905329999 0
513 1 1 -68.6921787062 39.0859115606 0
514 1 1 -68.5914832144 38.8903088563 0
515 1 1 -68.493866441 38.6931516461 0
516 1 1 -68.4162813271 38.4872862772 0
517 1 1 -68.3510591331 38.2771766263 0
518 1 1 -68.2715942361 38.0720295323 0
519 1 1 -68.1899877341 37.8677249097 0
520 1 1 -68.1073122671 37.6638505191 0
521 1 1 -68.0188085741 37.4624377679 0
522 1 1 -67.9237355818 37.2640413816 0
523 1 1 -67.8270533365 37.0664242177 0
524 1 1 -67.7657772798 36.8551300037 0
525 1 1 -67.7349521997 36.6373002205 0
526 1 1 -67.6877975606 36.4224131804 0
527 1 1 -67.6476005391 36.206116626 0
528 1 1 -67.6118839259 35.9890352506 0
529 1 1 -67.5991429087 35.7694045003 0
530 1 1 -67.5737867062 35.5508706059 0
531 1 1 -67.5401460157 35.3334578557 0
532 1 1 -67.5265353282 35.1138792839 0
533 1 1 -67.5214805973 34.8939373604 0
534 1 1 -67.5201663451 34.6739412861 0
535 1 1 -67.5041437923 34.4545255214 0
536 1 1 -67.4872805559 34.2351727661 0
537 1 1 -67.4514347761 34.018112682 0
538 1 1 -67.3925894021 33.8061286686 0
539 1 1 -67.3455330205 33.5912200905 0
540 1 1 -67.2761907701 33.3824339503 0
541 1 1 -67.1962166274 33.1774848432 0
542 1 1 -67.1576748655 32.9608872149 0
543 1 1 -67.1246260302 32.7433837104 0
544 1 1 -67.0952633908 32.5253519801 0
545 1 1 -66.999700882 32.327190917 0
546 1 1 -66.9337078212 32.1173221106 0
547 1 1 -66.8777479902 31.9045581632 0
548 1 1 -66.7867384963 31.7042651977 0
549 1 1 -66.693866194 31.5048291542 0
550 1 1 -66.599682499 31.3060090556 0
551 1 1 -66.4862711619 31.1174941527 0
552 1 1 -66.3862049136 30.9215687946 0
553 1 1 -66.2794333479 30.7292153887 0
554 1 1 -66.1473520922 30.5532763598 0
555 1 1 -66.0327077738 30.3655087367 0
556 1 1 -65.9178377131 30.1778791304 0
557 1 1 -65.7839805451 30.0032874395 0
558 1 1 -65.6801905303 29.8093090055 0
559 1 1 -65.5851608392 29.6108918746 0
560 1 1 -65.4945264582 29.4104288881 0
561 1 1 -65.3936695164 29.2149093819 0
562 1 1 -65.292726705 29.0194341947 0
563 1 1 -65.2165968693 28.8130262295 0
564 1 1 -65.1443315999 28.6052337107 0
565 1 1 -65.0619950913 28.401222193 0
566 1 1 -64.991545258 28.192807172 0
567 1 1 -64.9544955372 27.9759493426 0
568 1 1 -64.9131466026 27.7598700386 0
569 1 1 -64.8825129993 27.5420132454 0
570 1 1 -64.8813038008 27.3220165685 0
571 1 1 -64.8976977721 27.1026282422 0
572 1 1 -64.9358309554 26.8859583082 0
573 1 1 -64.9372467834 26.6659628641 0
574 1 1 -64.9599383009 26.4471362317 0
575 1 1 -64.9796071872 26.2280172345 0
576 1 1 -64.985376382 26.0080928921 0
577 1 1 -64.9829080156 25.7881067399 0
578 1 1 -64.9853486917 25.5681202787 0
579 1 1 -64.9638361897 25.3491745954 0
580 1 1 -64.9554429254 25.1293347602 0
581 1 1 -64.9656313619 24.9095708056 0
582 1 1 -64.9766376982 24.689846295 0
583 1 1 -64.9949323502 24.4706082834 0
584 1 1 -65.0104313315 24.2511549135 0
585 1 1 -65.0338980274 24.0324100525 0
586 1 1 -65.0643663016 23.8145300758 0
587 1 1 -65.107965586 23.5988935706 0
588 1 1 -65.1782386935 23.390418895 0
589 1 1 -65.2522763167 23.1832512567 0
590 1 1 -65.3269178934 22.9763004533 0
591 1 1 -65.3759406267 22.7618318737 0
592 1 1 -65.4387002062 22.5509735441 0
593 1 1 -65.4702418935 22.3332463708 0
594 1 1 -65.5222193335 22.1194746568 0
595 1 1 -65.5370431875 21.8999746491 0
596 1 1 -65.5205013772 21.6805974203 0
597 1 1 -65.4925426782 21.4623812176 0
598 1 1 -65.4878252981 21.2424317999 0
599 1 1 -65.4916142678 21.0224644303 0
600 1 1 -65.4639725768 20.8042078452 0
601 1 1 -65.4260302119 20.5875044143 0
602 1 1 -65.3969785675 20.3694310277 0
603 1 1 -65.3777261198 20.1502750484 0
604 1 1 -65.3405073323 19.9334461715 0
605 1 1 -65.3031563173 19.7166400331 0
606 1 1 -65.283824875 19.4974910077 0
607 1 1 -65.2685859862 19.2780194235 0
608 1 1 -65.2424522037 19.0595771533 0
609 1 1 -65.2454968595 18.8395982223 0
610 1 1 -65.2589724392 18.6200113175 0
611 1 1 -65.3133376401 18.4068343372 0
612 1 1 -65.353031772 18.1904449292 0
613 1 1 -65.3801567565 17.9721235257 0
614 1 1 -65.4182623345 17.755448735 0
615 1 1 -65.46519539 17.5405131905 0
616 1 1 -65.5192515506 17.3272576361 0
617 1 1 -65.5819771885 17.116389207 0
618 1 1 -65.6192353902 16.8995670993 0
619 1 1 -65.6590115866 16.6831927612 0
620 1 1 -65.7431169523 16.479904081 0
621 1 1 -65.8045790903 16.2686639201 0
622 1 1 -65.8486346815 16.0531201777 0
623 1 1 -65.8731634543 15.8344918646 0
624 1 1 -65.8415651179 15.6167729055 0
625 1 1 -65.785132881 15.4041337684 0
626 1 1 -65.7706195143 15.1846130127 0
627 1 1 -65.7418364087 14.9665040197 0
628 1 1 -65.7448052207 14.7465240521 0
629 1 1 -65.7582391202 14.5269345934 0
630 1 1 -65.7718995875 14.3073591129 0
631 1 1 -65.7615372384 14.08760329 0
632 1 1 -65.7518224021 13.8678178902 0
633 1 1 -65.7493176487 13.6478321493 0
634 1 1 -65.7502998577 13.4278343419 0
635 1 1 -65.7892838576 13.2113158721 0
636 1 1 -65.8282436737 12.9947930494 0
637 1 1 -65.8953999489 12.7852935633 0
638 1 1 -65.9821591863 12.5831232521 0
639 1 1 -66.0893740273 12.3910165685 0
640 1 1 -66.1848814171 12.192828934 0
641 1 1 -66.2659362593 11.9883048215 0
642 1 1 -66.3518821744 11.7857874157 0
643 1 1 -66.4312569076 11.5806054191 0
644 1 1 -66.4909750891 11.3688656288 0
645 1 1 -66.5657943437 11.1619789952 0
646 1 1 -66.6379343602 10.9541429589 0
647 1 1 -66.7443446269 10.7615894464 0
648 1 1 -66.8555080972 10.5717403409 0
649 1 1 -66.9672343682 10.3822218976 0
650 1 1 -67.0910835503 10.2003940116 0
651 1 1 -67.238351586 10.0369555656 0
652 1 1 -67.3774896257 9.86654252056 0
653 1 1 -67.4990791181 9.68319586712 0
654 1 1 -67.6097260451 9.49304524906 0
655 1 1 -67.7285826801 9.30791529386 0
656 1 1 -67.8416152163 9.11917302044 0
657 1 1 -67.9225198462 8.9145894413 0
658 1 1 -68.0278780391 8.7214582652 0
659 1 1 -68.0969151306 8.51257102288 0
660 1 1 -68.1352544898 8.29593747623 0
661 1 1 -68.1582482163 8.07714239278 0
662 1 1 -68.1648017509 7.85724002539 0
663 1 1 -68.179471895 7.63772969108 0
664 1 1 -68.2227790731 7.42203433108 0
665 1 1 -68.2659141638 7.20630449087 0
666 1 1 -68.3033136136 6.98950670225 0
667 1 1 -68.342942396 6.77310531685 0
668 1 1 -68.3890284809 6.55798657572 0
669 1 1 -68.4361886013 6.34310073849 0
670 1 1 -68.487175179 6.12909053103 0
671 1 1 -68.5508249232 5.91849919679 0
672 1 1 -68.6057617029 5.70546879933 0
673 1 1 -68.6884776659 5.50161083541 0
674 1 1 -68.7525009062 5.29113274937 0
675 1 1 -68.8197670709 5.08166852071 0
676 1 1 -68.8768170959 4.86919429956 0
677 1 1 -68.9766046248 4.67312683907 0
678 1 1 -69.0729049691 4.47532329084 0
679 1 1 -69.1956106842 4.29272179173 0
680 1 1 -69.3146670404 4.10772021321 0
681 1 1 -69.4310235798 3.92100878951 0
682 1 1 -69.5450504681 3.73286557612 0
683 1 1 -69.6652238082 3.5485876113 0
684 1 1 -69.7886629883 3.36648113468 0
685 1 1 -69.9180896808 3.18858023177 0
686 1 1 -70.0395341635 3.00513749512 0
687 1 1 -70.1707874214 2.82857990595 0
688 1 1 -70.3279658536 2.67464829629 0
689 1 1 -70.5031464722 2.54156279418 0
690 1 1 -70.6776098881 2.40753848111 0
691 1 1 -70.841981892 2.26131316063 0
692 1 1 -71.0040865838 2.11257826596 0
693 1 1 -71.1627745583 1.96020331152 0
694 1 1 -71.341325583 1.83167498155 0
695 1 1 -71.5045726778 1.68419486077 0
696 1 1 -71.673813036 1.54363277073 0
697 1 1 -71.8541674705 1.41764754164 0
698 1 1 -72.0291649295 1.28432129004 0
699 1 1 -72.1982288776 1.14354706856 0
700 1 1 -72.3656172993 1.00078462154 0
701 1 1 -72.5278984845 0.85224231464 0
702 1 1 -72.6768389371 0.690326467451 0
703 1 1 -72.835723187 0.538156184137 0
704 1 1 -73.0067308482 0.399749609823 0
705 1 1 -73.1731604734 0.255870563822 0
706 1 1 -73.3388841325 0.111178930323 0
707 1 1 -73.5012921117 -0.0372247363492 0
708 1 1 -73.658597576 -0.191026527377 0
709 1 1 -73.8358951652 -0.321278455837 0
710 1 1 -74.0308073937 -0.423304056306 0
711 1 1 -74.2302448642 -0.516173294412 0
712 1 1 -74.4373776411 -0.590308392056 0
713 1 1 -74.6437015251 -0.666665807621 0
714 1 1 -74.8545144763 -0.729577647531 0
715 1 1 -75.0541497988 -0.822020808435 0
716 1 1 -75.2522167626 -0.917778199013 0
717 1 1 -75.4513415248 -1.0113160474 0
718 1 1 -75.6327370681 -1.13579759972 0
719 1 1 -75.8189793339 -1.25290361336 0
720 1 1 -76.0094781835 -1.36294991406 0
721 1 1 -76.1953682702 -1.48061416392 0
722 1 1 -76.3823297922 -1.59656841905 0
723 1 1 -76.5854008797 -1.68119780762 0
724 1 1 -76.7970198486 -1.74134273256 0
725 1 1 -77.004168902 -1.81543233832 0
726 1 1 -77.2126252562 -1.88575977542 0
727 1 1 -77.4163481745 -1.96880778891 0
728 1 1 -77.61840195 -2.05583808144 0
729 1 1 -77.8284189337 -2.12135805197 0
730 1 1 -78.0417429867 -2.17514325842 0
731 1 1 -78.2453433516 -2.25849127222 0
732 1 1 -78.4439781971 -2.35306504317 0
733 1 1 -78.6500070776 -2.43021490001 0
734 1 1 -78.849166257 -2.52367944544 0
735 1 1 -79.0439552357 -2.62594016023 0
736 1 1 -79.2444025953 -2.7166090966 0
737 1 1 -79.4490172951 -2.79743498742 0
738 1 1 -79.642805689 -2.90157939866 0
739 1 1 -79.8364868836 -3.00592303686 0
740 1 1 -80.0211347371 -3.12552726014 0
741 1 1 -80.1962201724 -3.25873795922 0
742 1 1 -80.3685419409 -3.3955049439 0
743 1 1 -80.5575460883 -3.50809904794 0
744 1 1 -80.7544177998 -3.6062903368 0
745 1 1 -80.95794879 -3.68980761662 0
746 1 1 -81.1688798169 -3.75232242993 0
747 1 1 -81.3776208223 -3.82180043121 0
748 1 1 -81.5832545582 -3.89999740466 0
749 1 1 -81.7867371062 -3.9836326405 0
750 1 1 -81.99104129 -4.06524024116 0
751 1 1 -82.1807915826 -4.17657229605 0
752 1 1 -82.3757017733 -4.27860178954 0
753 1 1 -82.575788549 -4.37006370627 0
754 1 1 -82.7709448819 -4.47162159971 0
755 1 1 -82.9779714658 -4.54605273276 0
756 1 1 -83.1862471941 -4.61691330724 0
757 1 1 -83.3960547208 -4.68310093228 0
758 1 1 -83.6109007753 -4.73044195959 0
759 1 1 -83.8264676988 -4.77438398403 0
760 1 1 -84.0418899043 -4.81903007408 0
761 1 1 -84.2556590216 -4.87101819304 0
762 1 1 -84.4705788775 -4.91802303903 0
763 1 1 -84.6905785777 -4.91765984861 0
764 1 1 -84.9097586763 -4.93663573826 0
765 1 1 -85.1290081318 -4.95479272674 0
766 1 1 -85.3472911787 -4.98222466915 0
767 1 1 -85.5646843431 -5.01599169511 0
768 1 1 -85.7744564938 -5.08229135437 0
769 1 1 -85.9809721204 -5.15812865355 0
770 1 1 -86.1785915889 -5.25480618811 0