#Actin filament

72 atoms
71 bonds
70 angles

1 atom types
3 bond types
1 angle types

-500 500 xlo xhi
-500 500 ylo yhi
-0.05 0.05 zlo zhi

Masses

1 1


Atoms

1 1 1 -150 0 0
2 1 1 -147.258114415 -0.21110054615 0
3 1 1 -144.539704306 -0.626728360563 0
4 1 1 -141.877413647 -1.31571925067 0
5 1 1 -139.234028897 -2.07401804604 0
6 1 1 -136.55654893 -2.70139434725 0
7 1 1 -133.949463829 -3.57638421921 0
8 1 1 -131.274989139 -4.21645072801 0
9 1 1 -128.615411867 -4.91584241644 0
10 1 1 -125.929970379 -5.50821393463 0
11 1 1 -123.21836211 -5.96612287156 0
12 1 1 -120.569112703 -6.7036712267 0
13 1 1 -118.091005078 -7.89593067902 0
14 1 1 -115.688690504 -9.23435687732 0
15 1 1 -113.219907257 -10.4458061234 0
16 1 1 -110.834666731 -11.8144286551 0
17 1 1 -108.434065507 -13.1559254925 0
18 1 1 -106.013465675 -14.4609911806 0
19 1 1 -103.474681449 -15.5179087051 0
20 1 1 -100.893139195 -16.4656109748 0
21 1 1 -98.3528933566 -17.5190107478 0
22 1 1 -95.7161475727 -18.3000815968 0
23 1 1 -93.0793011354 -19.0808125787 0
24 1 1 -90.5529361931 -20.1670815041 0
25 1 1 -88.1757755904 -21.5496904398 0
26 1 1 -85.6306006354 -22.5911242824 0
27 1 1 -83.2231117221 -23.9202206417 0
28 1 1 -80.9048008013 -25.3993874593 0
29 1 1 -78.5609520873 -26.8377452749 0
30 1 1 -76.2665797247 -28.3537780786 0
31 1 1 -74.0029006661 -29.9152700317 0
32 1 1 -71.5905369358 -31.2354977518 0
33 1 1 -69.0665937591 -32.3273818303 0
34 1 1 -66.3730634138 -32.8818133217 0
35 1 1 -63.6846051174 -33.4603390244 0
36 1 1 -61.0370363622 -34.2038978227 0
37 1 1 -58.4327389404 -35.0871502999 0
38 1 1 -55.964723083 -36.3001621414 0
39 1 1 -53.3451199402 -37.1369293578 0
40 1 1 -50.8911780653 -38.3781663516 0
41 1 1 -48.4203806528 -39.5855023224 0
42 1 1 -45.8893855429 -40.6609388634 0
43 1 1 -43.288213729 -41.5533542344 0
44 1 1 -40.6501106705 -42.329828479 0
45 1 1 -38.0060381242 -43.0857255421 0
46 1 1 -35.2921364485 -43.5298400483 0
47 1 1 -32.6857236949 -44.4068306742 0
48 1 1 -29.9669767109 -44.8202491513 0
49 1 1 -27.2174132186 -44.771253217 0
50 1 1 -24.4684631489 -44.8472368619 0
51 1 1 -21.7221883427 -44.9903266551 0
52 1 1 -18.9928366271 -45.3266883836 0
53 1 1 -16.2813806486 -45.785498232 0
54 1 1 -13.5441031071 -46.0497171955 0
55 1 1 -10.8074889963 -46.32072127 0
56 1 1 -8.09806737899 -46.7913957856 0
57 1 1 -5.3960079228 -47.3026439594 0
58 1 1 -2.68032467925 -47.735731157 0
59 1 1 0.00678307797643 -48.3204976925 0
60 1 1 2.73700254766 -48.6497417469 0
61 1 1 5.48466513942 -48.7631008307 0
62 1 1 8.21741235743 -49.0706599997 0
63 1 1 10.9647580768 -49.1914552736 0
64 1 1 13.6518010406 -49.7765194674 0
65 1 1 16.3586417832 -50.2618164836 0
66 1 1 19.0559387261 -50.79762354 0
67 1 1 21.7344361963 -51.4206414387 0
68 1 1 24.4816226543 -51.5450060843 0
69 1 1 27.2238881389 -51.7511128817 0
70 1 1 29.9698203424 -51.6015925352 0
71 1 1 32.6652298963 -51.0563702532 0
72 1 1 35.2990413962 -50.2654612934 0


Bonds

0 1 1 2
1 2 2 3
2 3 3 4
3 1 4 5
4 2 5 6
5 3 6 7
6 1 7 8
7 2 8 9
8 3 9 10
9 1 10 11
10 2 11 12
11 3 12 13
12 1 13 14
13 2 14 15
14 3 15 16
15 1 16 17
16 2 17 18
17 3 18 19
18 1 19 20
19 2 20 21
20 3 21 22
21 1 22 23
22 2 23 24
23 3 24 25
24 1 25 26
25 2 26 27
26 3 27 28
27 1 28 29
28 2 29 30
29 3 30 31
30 1 31 32
31 2 32 33
32 3 33 34
33 1 34 35
34 2 35 36
35 3 36 37
36 1 37 38
37 2 38 39
38 3 39 40
39 1 40 41
40 2 41 42
41 3 42 43
42 1 43 44
43 2 44 45
44 3 45 46
45 1 46 47
46 2 47 48
47 3 48 49
48 1 49 50
49 2 50 51
50 3 51 52
51 1 52 53
52 2 53 54
53 3 54 55
54 1 55 56
55 2 56 57
56 3 57 58
57 1 58 59
58 2 59 60
59 3 60 61
60 1 61 62
61 2 62 63
62 3 63 64
63 1 64 65
64 2 65 66
65 3 66 67
66 1 67 68
67 2 68 69
68 3 69 70
69 1 70 71
70 2 71 72


Angles

1 1 1 2 3
2 1 2 3 4
3 1 3 4 5
4 1 4 5 6
5 1 5 6 7
6 1 6 7 8
7 1 7 8 9
8 1 8 9 10
9 1 9 10 11
10 1 10 11 12
11 1 11 12 13
12 1 12 13 14
13 1 13 14 15
14 1 14 15 16
15 1 15 16 17
16 1 16 17 18
17 1 17 18 19
18 1 18 19 20
19 1 19 20 21
20 1 20 21 22
21 1 21 22 23
22 1 22 23 24
23 1 23 24 25
24 1 24 25 26
25 1 25 26 27
26 1 26 27 28
27 1 27 28 29
28 1 28 29 30
29 1 29 30 31
30 1 30 31 32
31 1 31 32 33
32 1 32 33 34
33 1 33 34 35
34 1 34 35 36
35 1 35 36 37
36 1 36 37 38
37 1 37 38 39
38 1 38 39 40
39 1 39 40 41
40 1 40 41 42
41 1 41 42 43
42 1 42 43 44
43 1 43 44 45
44 1 44 45 46
45 1 45 46 47
46 1 46 47 48
47 1 47 48 49
48 1 48 49 50
49 1 49 50 51
50 1 50 51 52
51 1 51 52 53
52 1 52 53 54
53 1 53 54 55
54 1 54 55 56
55 1 55 56 57
56 1 56 57 58
57 1 57 58 59
58 1 58 59 60
59 1 59 60 61
60 1 60 61 62
61 1 61 62 63
62 1 62 63 64
63 1 63 64 65
64 1 64 65 66
65 1 65 66 67
66 1 66 67 68
67 1 67 68 69
68 1 68 69 70
69 1 69 70 71
70 1 70 71 72
