#Actin filament

9 atoms
8 bonds
7 angles

1 atom types
3 bond types
1 angle types

-500 500 xlo xhi
-500 500 ylo yhi
-0.05 0.05 zlo zhi

Masses

1 1


Atoms

1 1 1 -150 0 0
2 1 1 -129.274244873 -3.38276135929 0
3 1 1 -108.816823147 -8.12553442267 0
4 1 1 -88.5018804925 -13.4456006759 0
5 1 1 -68.3023769185 -19.1884271023 0
6 1 1 -47.8420275774 -23.9185544622 0
7 1 1 -27.6444157427 -29.6680306274 0
8 1 1 -7.2355275232 -34.6154826631 0
9 1 1 13.2947426294 -39.0322696697 0


Bonds

0 1 1 2
1 2 2 3
2 3 3 4
3 1 4 5
4 2 5 6
5 3 6 7
6 1 7 8
7 2 8 9


Angles

1 1 1 2 3
2 1 2 3 4
3 1 3 4 5
4 1 4 5 6
5 1 5 6 7
6 1 6 7 8
7 1 7 8 9
