#Actin filament

26 atoms
25 bonds
24 angles

1 atom types
3 bond types
1 angle types

-500 500 xlo xhi
-500 500 ylo yhi
-0.05 0.05 zlo zhi

Masses

1 1


Atoms

1 1 1 -150 0 0
2 1 1 -142.525933795 0.623164791533 0
3 1 1 -135.031179302 0.903619956273 0
4 1 1 -127.534842314 1.1379951946 0
5 1 1 -120.035036882 1.19201816846 0
6 1 1 -112.535645321 1.28754942087 0
7 1 1 -105.047889766 1.71593797194 0
8 1 1 -97.6641934349 0.400252413388 0
9 1 1 -90.1653965432 0.265920076131 0
10 1 1 -82.709148387 -0.543007259354 0
11 1 1 -75.2132343119 -0.790539434168 0
12 1 1 -67.7534800245 -1.56646853656 0
13 1 1 -60.3171734824 -2.54183770348 0
14 1 1 -52.8405676916 -3.13375480046 0
15 1 1 -45.4136551386 -4.17824986043 0
16 1 1 -37.9784250172 -5.16179093322 0
17 1 1 -30.488463704 -5.54970783951 0
18 1 1 -22.9886483293 -5.6023324111 0
19 1 1 -15.6519418443 -7.15884709252 0
20 1 1 -8.23880608265 -8.29701148252 0
21 1 1 -0.765686396779 -8.93142630004 0
22 1 1 6.72217789991 -9.35790991559 0
23 1 1 14.1723044857 -8.49442056707 0
24 1 1 21.666641222 -8.20301554939 0
25 1 1 29.1665957344 -8.22913664355 0
26 1 1 36.6655062403 -8.35696944237 0


Bonds

0 1 1 2
1 2 2 3
2 3 3 4
3 1 4 5
4 2 5 6
5 3 6 7
6 1 7 8
7 2 8 9
8 3 9 10
9 1 10 11
10 2 11 12
11 3 12 13
12 1 13 14
13 2 14 15
14 3 15 16
15 1 16 17
16 2 17 18
17 3 18 19
18 1 19 20
19 2 20 21
20 3 21 22
21 1 22 23
22 2 23 24
23 3 24 25
24 1 25 26


Angles

1 1 1 2 3
2 1 2 3 4
3 1 3 4 5
4 1 4 5 6
5 1 5 6 7
6 1 6 7 8
7 1 7 8 9
8 1 8 9 10
9 1 9 10 11
10 1 10 11 12
11 1 11 12 13
12 1 12 13 14
13 1 13 14 15
14 1 14 15 16
15 1 15 16 17
16 1 16 17 18
17 1 17 18 19
18 1 18 19 20
19 1 19 20 21
20 1 20 21 22
21 1 21 22 23
22 1 22 23 24
23 1 23 24 25
24 1 24 25 26
