#Actin filament

11 atoms
10 bonds
9 angles

1 atom types
3 bond types
1 angle types

-500 500 xlo xhi
-500 500 ylo yhi
-0.05 0.05 zlo zhi

Masses

1 1


Atoms

1 1 1 -150 0 0
2 1 1 -133.072999942 1.57374363954 0
3 1 1 -116.140125082 3.08296495704 0
4 1 1 -99.1830194474 4.28984874589 0
5 1 1 -82.299870773 6.27964542836 0
6 1 1 -65.4286639087 8.3682763058 0
7 1 1 -49.5277893698 14.3817768588 0
8 1 1 -34.4727988134 22.2778049329 0
9 1 1 -20.9336238933 32.5584052306 0
10 1 1 -7.01269961514 42.3158571132 0
11 1 1 7.26853242334 51.537918242 0


Bonds

0 1 1 2
1 2 2 3
2 3 3 4
3 1 4 5
4 2 5 6
5 3 6 7
6 1 7 8
7 2 8 9
8 3 9 10
9 1 10 11


Angles

1 1 1 2 3
2 1 2 3 4
3 1 3 4 5
4 1 4 5 6
5 1 5 6 7
6 1 6 7 8
7 1 7 8 9
8 1 8 9 10
9 1 9 10 11
