#Actin filament

26 atoms
25 bonds
24 angles

1 atom types
3 bond types
1 angle types

-500 500 xlo xhi
-500 500 ylo yhi
-0.05 0.05 zlo zhi

Masses

1 1


Atoms

1 1 1 -150 0 0
2 1 1 -142.522130224 -0.575728762226 0
3 1 1 -135.108284472 -1.70925916517 0
4 1 1 -127.847491766 -3.58832522911 0
5 1 1 -120.638260629 -5.65641285284 0
6 1 1 -113.336042536 -7.36743912887 0
7 1 1 -106.225810442 -9.7537751433 0
8 1 1 -98.9317885619 -11.4994110764 0
9 1 1 -91.6783960016 -13.4068429539 0
10 1 1 -84.3544646713 -15.0224016399 0
11 1 1 -76.9591693917 -16.2712441952 0
12 1 1 -69.7339437345 -18.2827397092 0
13 1 1 -62.9754683951 -21.5343563973 0
14 1 1 -56.4237013755 -25.1846096654 0
15 1 1 -49.6906561545 -28.4885621547 0
16 1 1 -43.1854547206 -32.2211690594 0
17 1 1 -36.6383604741 -35.8797967977 0
18 1 1 -30.036724567 -39.4390668563 0
19 1 1 -23.1127675869 -42.3215691958 0
20 1 1 -16.0721978039 -44.9062117495 0
21 1 1 -9.14425460889 -47.7791202212 0
22 1 1 -1.95312974378 -49.9093134459 0
23 1 1 5.2382696307 -52.0385797601 0
24 1 1 12.128355837 -55.0011313748 0
25 1 1 18.611521117 -58.7718830177 0
26 1 1 25.5529073579 -61.6121571337 0


Bonds

0 1 1 2
1 2 2 3
2 3 3 4
3 1 4 5
4 2 5 6
5 3 6 7
6 1 7 8
7 2 8 9
8 3 9 10
9 1 10 11
10 2 11 12
11 3 12 13
12 1 13 14
13 2 14 15
14 3 15 16
15 1 16 17
16 2 17 18
17 3 18 19
18 1 19 20
19 2 20 21
20 3 21 22
21 1 22 23
22 2 23 24
23 3 24 25
24 1 25 26


Angles

1 1 1 2 3
2 1 2 3 4
3 1 3 4 5
4 1 4 5 6
5 1 5 6 7
6 1 6 7 8
7 1 7 8 9
8 1 8 9 10
9 1 9 10 11
10 1 10 11 12
11 1 11 12 13
12 1 12 13 14
13 1 13 14 15
14 1 14 15 16
15 1 15 16 17
16 1 16 17 18
17 1 17 18 19
18 1 18 19 20
19 1 19 20 21
20 1 20 21 22
21 1 21 22 23
22 1 22 23 24
23 1 23 24 25
24 1 24 25 26
