#Actin filament

57 atoms
56 bonds
55 angles

1 atom types
3 bond types
1 angle types

-500 500 xlo xhi
-500 500 ylo yhi
-0.05 0.05 zlo zhi

Masses

1 1


Atoms

1 1 1 -150 0 0
2 1 1 -146.502596944 -0.13480306385 0
3 1 1 -143.063217811 -0.783394753713 0
4 1 1 -139.806119874 -2.06453215018 0
5 1 1 -136.707925402 -3.69277998553 0
6 1 1 -133.564686264 -5.23227591571 0
7 1 1 -130.24549976 -6.34268167541 0
8 1 1 -126.890956188 -7.34119928971 0
9 1 1 -123.681432117 -8.73724915804 0
10 1 1 -120.397509957 -9.94797424975 0
11 1 1 -117.117749263 -11.1699275191 0
12 1 1 -113.742309635 -12.0953502943 0
13 1 1 -110.435356793 -13.241676122 0
14 1 1 -107.177587312 -14.521104904 0
15 1 1 -103.950604449 -15.876310277 0
16 1 1 -100.576026059 -16.8048686707 0
17 1 1 -97.3724058355 -18.2144137968 0
18 1 1 -94.1131093366 -19.489947541 0
19 1 1 -90.8489888111 -20.7530853779 0
20 1 1 -87.7324112595 -22.3458641964 0
21 1 1 -84.6718147089 -24.0437301377 0
22 1 1 -81.5603955727 -25.6465623058 0
23 1 1 -78.3345865609 -27.004559441 0
24 1 1 -75.2970472222 -28.7433391181 0
25 1 1 -72.2764467765 -30.5113812408 0
26 1 1 -69.17698125 -32.1372082457 0
27 1 1 -65.9311532329 -33.4466357861 0
28 1 1 -62.916232513 -35.2243458448 0
29 1 1 -59.8271784427 -36.8698685432 0
30 1 1 -56.7279420402 -38.4961322737 0
31 1 1 -53.8406685291 -40.4744274166 0
32 1 1 -50.8143989 -42.2327482439 0
33 1 1 -47.740665685 -43.9067148275 0
34 1 1 -44.6490367759 -45.5473947745 0
35 1 1 -41.5945483482 -47.2562249138 0
36 1 1 -38.6664205061 -49.1735322288 0
37 1 1 -35.6614003415 -50.9679273387 0
38 1 1 -32.7994276293 -52.9826511895 0
39 1 1 -29.6364149181 -54.4811005841 0
40 1 1 -26.4988320061 -56.0320917093 0
41 1 1 -23.5006908531 -57.8379570495 0
42 1 1 -20.5187713498 -59.6704842868 0
43 1 1 -17.3771757897 -61.2133314396 0
44 1 1 -13.99368709 -62.1088783225 0
45 1 1 -10.7234684568 -63.3561433669 0
46 1 1 -7.32093594077 -64.1763704557 0
47 1 1 -4.09913005763 -65.5438377684 0
48 1 1 -0.848200917267 -66.8405488867 0
49 1 1 2.46243230129 -67.9762018672 0
50 1 1 5.70504200675 -69.2935789196 0
51 1 1 8.98939705747 -70.5031292082 0
52 1 1 12.4050644551 -71.2668151572 0
53 1 1 15.8524499893 -71.8714083913 0
54 1 1 19.1334495382 -73.0900313684 0
55 1 1 22.3816020918 -74.3936820074 0
56 1 1 25.402175966 -76.1617695251 0
57 1 1 28.4530678786 -77.8770125219 0


Bonds

0 1 1 2
1 2 2 3
2 3 3 4
3 1 4 5
4 2 5 6
5 3 6 7
6 1 7 8
7 2 8 9
8 3 9 10
9 1 10 11
10 2 11 12
11 3 12 13
12 1 13 14
13 2 14 15
14 3 15 16
15 1 16 17
16 2 17 18
17 3 18 19
18 1 19 20
19 2 20 21
20 3 21 22
21 1 22 23
22 2 23 24
23 3 24 25
24 1 25 26
25 2 26 27
26 3 27 28
27 1 28 29
28 2 29 30
29 3 30 31
30 1 31 32
31 2 32 33
32 3 33 34
33 1 34 35
34 2 35 36
35 3 36 37
36 1 37 38
37 2 38 39
38 3 39 40
39 1 40 41
40 2 41 42
41 3 42 43
42 1 43 44
43 2 44 45
44 3 45 46
45 1 46 47
46 2 47 48
47 3 48 49
48 1 49 50
49 2 50 51
50 3 51 52
51 1 52 53
52 2 53 54
53 3 54 55
54 1 55 56
55 2 56 57


Angles

1 1 1 2 3
2 1 2 3 4
3 1 3 4 5
4 1 4 5 6
5 1 5 6 7
6 1 6 7 8
7 1 7 8 9
8 1 8 9 10
9 1 9 10 11
10 1 10 11 12
11 1 11 12 13
12 1 12 13 14
13 1 13 14 15
14 1 14 15 16
15 1 15 16 17
16 1 16 17 18
17 1 17 18 19
18 1 18 19 20
19 1 19 20 21
20 1 20 21 22
21 1 21 22 23
22 1 22 23 24
23 1 23 24 25
24 1 24 25 26
25 1 25 26 27
26 1 26 27 28
27 1 27 28 29
28 1 28 29 30
29 1 29 30 31
30 1 30 31 32
31 1 31 32 33
32 1 32 33 34
33 1 33 34 35
34 1 34 35 36
35 1 35 36 37
36 1 36 37 38
37 1 37 38 39
38 1 38 39 40
39 1 39 40 41
40 1 40 41 42
41 1 41 42 43
42 1 42 43 44
43 1 43 44 45
44 1 44 45 46
45 1 45 46 47
46 1 46 47 48
47 1 47 48 49
48 1 48 49 50
49 1 49 50 51
50 1 50 51 52
51 1 51 52 53
52 1 52 53 54
53 1 53 54 55
54 1 54 55 56
55 1 55 56 57
