#Actin filament

6 atoms
5 bonds
4 angles

1 atom types
3 bond types
1 angle types

-500 500 xlo xhi
-500 500 ylo yhi
-0.05 0.05 zlo zhi

Masses

1 1


Atoms

1 1 1 -150 0 0
2 1 1 -117.003399365 -0.473652337931 0
3 1 1 -84.3412563731 -5.18368579568 0
4 1 1 -51.4014814713 -7.17648017107 0
5 1 1 -18.4696128852 -9.29592147142 0
6 1 1 14.0906845089 -14.6650027345 0


Bonds

0 1 1 2
1 2 2 3
2 3 3 4
3 1 4 5
4 2 5 6


Angles

1 1 1 2 3
2 1 2 3 4
3 1 3 4 5
4 1 4 5 6
