#Actin filament

80 atoms
79 bonds
78 angles

1 atom types
3 bond types
1 angle types

-500 500 xlo xhi
-500 500 ylo yhi
-0.05 0.05 zlo zhi

Masses

1 1


Atoms

1 1 1 -150 0 0
2 1 1 -147.507376741 -0.191909587409 0
3 1 1 -145.036094824 -0.569753055057 0
4 1 1 -142.615830589 -1.1961084097 0
5 1 1 -140.212753543 -1.88547095095 0
6 1 1 -137.778680845 -2.45581304296 0
7 1 1 -135.408603481 -3.2512583811 0
8 1 1 -132.977262854 -3.83313702547 0
9 1 1 -130.559465334 -4.46894765131 0
10 1 1 -128.11815489 -5.0074672133 0
11 1 1 -125.653056464 -5.42374806505 0
12 1 1 -123.244647912 -6.09424656973 0
13 1 1 -120.991822798 -7.17811879911 0
14 1 1 -118.807900459 -8.39486988847 0
15 1 1 -116.563552051 -9.49618738489 0
16 1 1 -114.395151574 -10.7403896865 0
17 1 1 -112.212786825 -11.9599322659 0
18 1 1 -110.012241522 -13.1463556188 0
19 1 1 -107.704255862 -14.1071897319 0
20 1 1 -105.357399268 -14.9687372498 0
21 1 1 -103.04808487 -15.9263734071 0
22 1 1 -100.651043248 -16.6364378153 0
23 1 1 -98.2539101231 -17.3461932534 0
24 1 1 -95.957214721 -18.3337104583 0
25 1 1 -93.7961596277 -19.5906276726 0
26 1 1 -91.482364214 -20.5373857112 0
27 1 1 -89.2937379292 -21.7456551288 0
28 1 1 -87.1861825466 -23.0903522357 0
29 1 1 -85.0554109884 -24.3979502499 0
30 1 1 -82.9696179316 -25.7761618897 0
31 1 1 -80.9117278783 -27.1957000288 0
32 1 1 -78.7186699417 -28.3959070471 0
33 1 1 -76.4241761447 -29.3885289366 0
34 1 1 -73.9755121944 -29.8925575652 0
35 1 1 -71.5314591977 -30.4184900222 0
36 1 1 -69.1245785111 -31.0944525661 0
37 1 1 -66.7570354003 -31.8974093636 0
38 1 1 -64.5133846209 -33.0001474013 0
39 1 1 -62.1319272184 -33.7608448707 0
40 1 1 -59.9010709685 -34.8892421378 0
41 1 1 -57.6548915026 -35.9868202931 0
42 1 1 -55.3539868572 -36.9644898758 0
43 1 1 -52.9892852082 -37.7757765768 0
44 1 1 -50.5910097004 -38.4816622536 0
45 1 1 -48.1873073856 -39.1688414019 0
46 1 1 -45.7201240441 -39.5725818621 0
47 1 1 -43.3506579045 -40.3698460675 0
48 1 1 -40.8790697372 -40.7456810467 0
49 1 1 -38.3794665624 -40.7011392881 0
50 1 1 -35.8804210445 -40.770215329 0
51 1 1 -33.3838075843 -40.9002969592 0
52 1 1 -30.9025787519 -41.2060803487 0
53 1 1 -28.4376187715 -41.6231802109 0
54 1 1 -25.9491846428 -41.8633792687 0
55 1 1 -23.461353633 -42.1097466091 0
56 1 1 -20.9982430718 -42.5376325324 0
57 1 1 -18.5418253844 -43.0024035995 0
58 1 1 -16.0730224357 -43.3961192337 0
59 1 1 -13.6301972018 -43.927725175 0
60 1 1 -11.1481795021 -44.2270379518 0
61 1 1 -8.65030441871 -44.3300916643 0
62 1 1 -6.16598876597 -44.6096909088 0
63 1 1 -3.66840174835 -44.7195047941 0
64 1 1 -1.22563541766 -45.251381334 0
65 1 1 1.23512889383 -45.6925604397 0
66 1 1 3.68721702377 -46.1796577636 0
67 1 1 6.12221472395 -46.7460376716 0
68 1 1 8.61965695848 -46.8590964402 0
69 1 1 11.1126255808 -47.0464662561 0
70 1 1 13.608927584 -46.9105386684 0
71 1 1 16.0592999057 -46.4148820484 0
72 1 1 18.4536739966 -45.6958739031 0
73 1 1 20.8440343156 -44.9636324504 0
74 1 1 23.3071992399 -44.5360595845 0
75 1 1 25.6361745694 -43.6272835315 0
76 1 1 28.0057063969 -42.8302145769 0
77 1 1 30.4234562154 -42.1942225839 0
78 1 1 32.7490914527 -41.2769326934 0
79 1 1 35.1069538475 -40.4459784664 0
80 1 1 37.4194418633 -39.4960315327 0


Bonds

0 1 1 2
1 2 2 3
2 3 3 4
3 1 4 5
4 2 5 6
5 3 6 7
6 1 7 8
7 2 8 9
8 3 9 10
9 1 10 11
10 2 11 12
11 3 12 13
12 1 13 14
13 2 14 15
14 3 15 16
15 1 16 17
16 2 17 18
17 3 18 19
18 1 19 20
19 2 20 21
20 3 21 22
21 1 22 23
22 2 23 24
23 3 24 25
24 1 25 26
25 2 26 27
26 3 27 28
27 1 28 29
28 2 29 30
29 3 30 31
30 1 31 32
31 2 32 33
32 3 33 34
33 1 34 35
34 2 35 36
35 3 36 37
36 1 37 38
37 2 38 39
38 3 39 40
39 1 40 41
40 2 41 42
41 3 42 43
42 1 43 44
43 2 44 45
44 3 45 46
45 1 46 47
46 2 47 48
47 3 48 49
48 1 49 50
49 2 50 51
50 3 51 52
51 1 52 53
52 2 53 54
53 3 54 55
54 1 55 56
55 2 56 57
56 3 57 58
57 1 58 59
58 2 59 60
59 3 60 61
60 1 61 62
61 2 62 63
62 3 63 64
63 1 64 65
64 2 65 66
65 3 66 67
66 1 67 68
67 2 68 69
68 3 69 70
69 1 70 71
70 2 71 72
71 3 72 73
72 1 73 74
73 2 74 75
74 3 75 76
75 1 76 77
76 2 77 78
77 3 78 79
78 1 79 80


Angles

1 1 1 2 3
2 1 2 3 4
3 1 3 4 5
4 1 4 5 6
5 1 5 6 7
6 1 6 7 8
7 1 7 8 9
8 1 8 9 10
9 1 9 10 11
10 1 10 11 12
11 1 11 12 13
12 1 12 13 14
13 1 13 14 15
14 1 14 15 16
15 1 15 16 17
16 1 16 17 18
17 1 17 18 19
18 1 18 19 20
19 1 19 20 21
20 1 20 21 22
21 1 21 22 23
22 1 22 23 24
23 1 23 24 25
24 1 24 25 26
25 1 25 26 27
26 1 26 27 28
27 1 27 28 29
28 1 28 29 30
29 1 29 30 31
30 1 30 31 32
31 1 31 32 33
32 1 32 33 34
33 1 33 34 35
34 1 34 35 36
35 1 35 36 37
36 1 36 37 38
37 1 37 38 39
38 1 38 39 40
39 1 39 40 41
40 1 40 41 42
41 1 41 42 43
42 1 42 43 44
43 1 43 44 45
44 1 44 45 46
45 1 45 46 47
46 1 46 47 48
47 1 47 48 49
48 1 48 49 50
49 1 49 50 51
50 1 50 51 52
51 1 51 52 53
52 1 52 53 54
53 1 53 54 55
54 1 54 55 56
55 1 55 56 57
56 1 56 57 58
57 1 57 58 59
58 1 58 59 60
59 1 59 60 61
60 1 60 61 62
61 1 61 62 63
62 1 62 63 64
63 1 63 64 65
64 1 64 65 66
65 1 65 66 67
66 1 66 67 68
67 1 67 68 69
68 1 68 69 70
69 1 69 70 71
70 1 70 71 72
71 1 71 72 73
72 1 72 73 74
73 1 73 74 75
74 1 74 75 76
75 1 75 76 77
76 1 76 77 78
77 1 77 78 79
78 1 78 79 80
