#Actin filament

23 atoms
22 bonds
21 angles

1 atom types
3 bond types
1 angle types

-500 500 xlo xhi
-500 500 ylo yhi
-0.05 0.05 zlo zhi

Masses

1 1


Atoms

1 1 1 -150 0 0
2 1 1 -141.52508092 -0.65249259719 0
3 1 1 -133.122722402 -1.9371603872 0
4 1 1 -124.893824001 -4.06676859299 0
5 1 1 -116.723362046 -6.41060123322 0
6 1 1 -108.447514874 -8.34976434605 0
7 1 1 -100.389251834 -11.0542784957 0
8 1 1 -92.1226937034 -13.0326658866 0
9 1 1 -83.9021821352 -15.1944220144 0
10 1 1 -75.6017266274 -17.0253885252 0
11 1 1 -67.2203919772 -18.4407434212 0
12 1 1 -59.0318028991 -20.7204383371 0
13 1 1 -51.3721975144 -24.405603917 0
14 1 1 -43.9468615589 -28.5425576208 0
15 1 1 -36.3160769751 -32.2870371086 0
16 1 1 -28.9435153501 -36.517324934 0
17 1 1 -21.523475204 -40.6637697041 0
18 1 1 -14.041621176 -44.6976091038 0
19 1 1 -6.19446993183 -47.9644450886 0
20 1 1 1.78484248895 -50.8937066494 0
21 1 1 9.63651144326 -54.1496695841 0
22 1 1 17.786452957 -56.5638885721 0
23 1 1 25.9367055815 -58.9770570614 0


Bonds

0 1 1 2
1 2 2 3
2 3 3 4
3 1 4 5
4 2 5 6
5 3 6 7
6 1 7 8
7 2 8 9
8 3 9 10
9 1 10 11
10 2 11 12
11 3 12 13
12 1 13 14
13 2 14 15
14 3 15 16
15 1 16 17
16 2 17 18
17 3 18 19
18 1 19 20
19 2 20 21
20 3 21 22
21 1 22 23


Angles

1 1 1 2 3
2 1 2 3 4
3 1 3 4 5
4 1 4 5 6
5 1 5 6 7
6 1 6 7 8
7 1 7 8 9
8 1 8 9 10
9 1 9 10 11
10 1 10 11 12
11 1 11 12 13
12 1 12 13 14
13 1 13 14 15
14 1 14 15 16
15 1 15 16 17
16 1 16 17 18
17 1 17 18 19
18 1 18 19 20
19 1 19 20 21
20 1 20 21 22
21 1 21 22 23
