#Actin filament

7 atoms
6 bonds
5 angles

1 atom types
3 bond types
1 angle types

-500 500 xlo xhi
-500 500 ylo yhi
-0.05 0.05 zlo zhi

Masses

1 1


Atoms

1 1 1 -150 0 0
2 1 1 -123.002641661 0.377680674407 0
3 1 1 -96.481336003 5.43933516846 0
4 1 1 -70.0194259134 10.80285215 0
5 1 1 -43.0851738686 12.6859524623 0
6 1 1 -16.6326655183 18.0956476459 0
7 1 1 9.49298946285 24.9110824673 0


Bonds

0 1 1 2
1 2 2 3
2 3 3 4
3 1 4 5
4 2 5 6
5 3 6 7


Angles

1 1 1 2 3
2 1 2 3 4
3 1 3 4 5
4 1 4 5 6
5 1 5 6 7
