#Actin filament

114 atoms
113 bonds
112 angles

1 atom types
3 bond types
1 angle types

-500 500 xlo xhi
-500 500 ylo yhi
-0.05 0.05 zlo zhi

Masses

1 1


Atoms

1 1 1 -150 0 0
2 1 1 -148.255163719 -0.134336711186 0
3 1 1 -146.525266377 -0.39882713854 0
4 1 1 -144.831081412 -0.837275886791 0
5 1 1 -143.14892748 -1.31982966566 0
6 1 1 -141.445076592 -1.71906913007 0
7 1 1 -139.786022436 -2.27588086677 0
8 1 1 -138.084083998 -2.68319591783 0
9 1 1 -136.391625734 -3.12826335591 0
10 1 1 -134.682708423 -3.50522704931 0
11 1 1 -132.957139525 -3.79662364554 0
12 1 1 -131.271253538 -4.26597259881 0
13 1 1 -129.694275959 -5.02468315938 0
14 1 1 -128.165530321 -5.87640892193 0
15 1 1 -126.594486436 -6.64733116943 0
16 1 1 -125.076606101 -7.51827278053 0
17 1 1 -123.548950777 -8.37195258613 0
18 1 1 -122.008569066 -9.20244893314 0
19 1 1 -120.392979104 -9.87503281236 0
20 1 1 -118.750179488 -10.4781160749 0
21 1 1 -117.133659409 -11.148461385 0
22 1 1 -115.455730274 -11.6455064707 0
23 1 1 -113.777737086 -12.1423352774 0
24 1 1 -112.170050305 -12.8335973208 0
25 1 1 -110.657311739 -13.7134393708 0
26 1 1 -109.03765495 -14.3761699979 0
27 1 1 -107.50561655 -15.2219585902 0
28 1 1 -106.030327783 -16.163246565 0
29 1 1 -104.538787692 -17.0785651749 0
30 1 1 -103.078732552 -18.0433133228 0
31 1 1 -101.638209515 -19.0369900202 0
32 1 1 -100.103068959 -19.877134933 0
33 1 1 -98.4969233013 -20.5719702556 0
34 1 1 -96.782858536 -20.9247902956 0
35 1 1 -95.0720214384 -21.2929430155 0
36 1 1 -93.3872049578 -21.7661167963 0
37 1 1 -91.7299247802 -22.3281865545 0
38 1 1 -90.1593692346 -23.1001031809 0
39 1 1 -88.4923490529 -23.6325914095 0
40 1 1 -86.9307496779 -24.4224694965 0
41 1 1 -85.3584240518 -25.1907742052 0
42 1 1 -83.7477908001 -25.8751429131 0
43 1 1 -82.0924996457 -26.4430436037 0
44 1 1 -80.4137067903 -26.9371635775 0
45 1 1 -78.7311151699 -27.4181889813 0
46 1 1 -77.0040868309 -27.7008073035 0
47 1 1 -75.3454605331 -28.2588922472 0
48 1 1 -73.6153488161 -28.5219767327 0
49 1 1 -71.8656265937 -28.4907975017 0
50 1 1 -70.1162947311 -28.5391507303 0
51 1 1 -68.368665309 -28.6302078714 0
52 1 1 -66.6318051263 -28.8442562441 0
53 1 1 -64.90633314 -29.1362261476 0
54 1 1 -63.16442925 -29.3043654881 0
55 1 1 -61.4229475431 -29.4768226264 0
56 1 1 -59.6987701503 -29.7763427727 0
57 1 1 -57.9792777691 -30.1016825196 0
58 1 1 -56.251115705 -30.3772834636 0
59 1 1 -54.5411380413 -30.7494076225 0
60 1 1 -52.8037256515 -30.9589265662 0
61 1 1 -51.0552130931 -31.031064165 0
62 1 1 -49.3161921362 -31.2267836361 0
63 1 1 -47.5678812238 -31.3036533559 0
64 1 1 -45.8579447924 -31.6759669338 0
65 1 1 -44.1354097743 -31.9847923078 0
66 1 1 -42.4189480834 -32.3257604346 0
67 1 1 -40.7144496932 -32.7222263701 0
68 1 1 -38.9662401291 -32.8013675082 0
69 1 1 -37.2211620934 -32.9325263793 0
70 1 1 -35.4737506912 -32.8373770679 0
71 1 1 -33.758490066 -32.4904174339 0
72 1 1 -32.0824282024 -31.9871117322 0
73 1 1 -30.4091759791 -31.4745427152 0
74 1 1 -28.684960532 -31.1752417092 0
75 1 1 -27.0546778014 -30.539098472 0
76 1 1 -25.3960055221 -29.9811502038 0
77 1 1 -23.7035806492 -29.5359558087 0
78 1 1 -22.0756359831 -28.8938528854 0
79 1 1 -20.4251323068 -28.3121849265 0
80 1 1 -18.8063906957 -27.6472220729 0
81 1 1 -17.3416874105 -26.6895455689 0
82 1 1 -15.8293781856 -25.8089657553 0
83 1 1 -14.2019082332 -25.1656605757 0
84 1 1 -12.7111201059 -24.2491177454 0
85 1 1 -11.2857087679 -23.2338825424 0
86 1 1 -9.88797818709 -22.1808634432 0
87 1 1 -8.45855609709 -21.1712830904 0
88 1 1 -7.10088247365 -20.0670990785 0
89 1 1 -5.60579365327 -19.1575885403 0
90 1 1 -4.07550646361 -18.3086355868 0
91 1 1 -2.73396272111 -17.1849094694 0
92 1 1 -1.4169729298 -16.0325042067 0
93 1 1 0.0208517788174 -15.0349270882 0
94 1 1 1.25859745607 -13.7977991084 0
95 1 1 2.37437159199 -12.4496344012 0
96 1 1 3.65974247299 -11.2620647408 0
97 1 1 4.85791028848 -9.98656723558 0
98 1 1 6.05348892266 -8.708642461 0
99 1 1 7.24886361589 -7.43052691741 0
100 1 1 8.381155062 -6.09620458713 0
101 1 1 9.68720788407 -4.93141875877 0
102 1 1 11.1600279782 -3.98627275399 0
103 1 1 12.729377542 -3.21190724169 0
104 1 1 14.3064456075 -2.45338478543 0
105 1 1 15.8869365045 -1.70202034347 0
106 1 1 17.4351433869 -0.88620452521 0
107 1 1 19.0891614656 -0.314606593766 0
108 1 1 20.790479442 0.0952923490018 0
109 1 1 22.4924204524 0.502596653982 0
110 1 1 24.2203510958 0.7796448299 0
111 1 1 25.9451351877 1.07565131023 0
112 1 1 27.6758823469 1.33452245728 0
113 1 1 29.3284519261 1.91029479589 0
114 1 1 30.900257857 2.6796621436 0


Bonds

0 1 1 2
1 2 2 3
2 3 3 4
3 1 4 5
4 2 5 6
5 3 6 7
6 1 7 8
7 2 8 9
8 3 9 10
9 1 10 11
10 2 11 12
11 3 12 13
12 1 13 14
13 2 14 15
14 3 15 16
15 1 16 17
16 2 17 18
17 3 18 19
18 1 19 20
19 2 20 21
20 3 21 22
21 1 22 23
22 2 23 24
23 3 24 25
24 1 25 26
25 2 26 27
26 3 27 28
27 1 28 29
28 2 29 30
29 3 30 31
30 1 31 32
31 2 32 33
32 3 33 34
33 1 34 35
34 2 35 36
35 3 36 37
36 1 37 38
37 2 38 39
38 3 39 40
39 1 40 41
40 2 41 42
41 3 42 43
42 1 43 44
43 2 44 45
44 3 45 46
45 1 46 47
46 2 47 48
47 3 48 49
48 1 49 50
49 2 50 51
50 3 51 52
51 1 52 53
52 2 53 54
53 3 54 55
54 1 55 56
55 2 56 57
56 3 57 58
57 1 58 59
58 2 59 60
59 3 60 61
60 1 61 62
61 2 62 63
62 3 63 64
63 1 64 65
64 2 65 66
65 3 66 67
66 1 67 68
67 2 68 69
68 3 69 70
69 1 70 71
70 2 71 72
71 3 72 73
72 1 73 74
73 2 74 75
74 3 75 76
75 1 76 77
76 2 77 78
77 3 78 79
78 1 79 80
79 2 80 81
80 3 81 82
81 1 82 83
82 2 83 84
83 3 84 85
84 1 85 86
85 2 86 87
86 3 87 88
87 1 88 89
88 2 89 90
89 3 90 91
90 1 91 92
91 2 92 93
92 3 93 94
93 1 94 95
94 2 95 96
95 3 96 97
96 1 97 98
97 2 98 99
98 3 99 100
99 1 100 101
100 2 101 102
101 3 102 103
102 1 103 104
103 2 104 105
104 3 105 106
105 1 106 107
106 2 107 108
107 3 108 109
108 1 109 110
109 2 110 111
110 3 111 112
111 1 112 113
112 2 113 114


Angles

1 1 1 2 3
2 1 2 3 4
3 1 3 4 5
4 1 4 5 6
5 1 5 6 7
6 1 6 7 8
7 1 7 8 9
8 1 8 9 10
9 1 9 10 11
10 1 10 11 12
11 1 11 12 13
12 1 12 13 14
13 1 13 14 15
14 1 14 15 16
15 1 15 16 17
16 1 16 17 18
17 1 17 18 19
18 1 18 19 20
19 1 19 20 21
20 1 20 21 22
21 1 21 22 23
22 1 22 23 24
23 1 23 24 25
24 1 24 25 26
25 1 25 26 27
26 1 26 27 28
27 1 27 28 29
28 1 28 29 30
29 1 29 30 31
30 1 30 31 32
31 1 31 32 33
32 1 32 33 34
33 1 33 34 35
34 1 34 35 36
35 1 35 36 37
36 1 36 37 38
37 1 37 38 39
38 1 38 39 40
39 1 39 40 41
40 1 40 41 42
41 1 41 42 43
42 1 42 43 44
43 1 43 44 45
44 1 44 45 46
45 1 45 46 47
46 1 46 47 48
47 1 47 48 49
48 1 48 49 50
49 1 49 50 51
50 1 50 51 52
51 1 51 52 53
52 1 52 53 54
53 1 53 54 55
54 1 54 55 56
55 1 55 56 57
56 1 56 57 58
57 1 57 58 59
58 1 58 59 60
59 1 59 60 61
60 1 60 61 62
61 1 61 62 63
62 1 62 63 64
63 1 63 64 65
64 1 64 65 66
65 1 65 66 67
66 1 66 67 68
67 1 67 68 69
68 1 68 69 70
69 1 69 70 71
70 1 70 71 72
71 1 71 72 73
72 1 72 73 74
73 1 73 74 75
74 1 74 75 76
75 1 75 76 77
76 1 76 77 78
77 1 77 78 79
78 1 78 79 80
79 1 79 80 81
80 1 80 81 82
81 1 81 82 83
82 1 82 83 84
83 1 83 84 85
84 1 84 85 86
85 1 85 86 87
86 1 86 87 88
87 1 87 88 89
88 1 88 89 90
89 1 89 90 91
90 1 90 91 92
91 1 91 92 93
92 1 92 93 94
93 1 93 94 95
94 1 94 95 96
95 1 95 96 97
96 1 96 97 98
97 1 97 98 99
98 1 98 99 100
99 1 99 100 101
100 1 100 101 102
101 1 101 102 103
102 1 102 103 104
103 1 103 104 105
104 1 104 105 106
105 1 105 106 107
106 1 106 107 108
107 1 107 108 109
108 1 108 109 110
109 1 109 110 111
110 1 110 111 112
111 1 111 112 113
112 1 112 113 114
