#Actin filament

9 atoms
8 bonds
7 angles

1 atom types
3 bond types
1 angle types

-500 500 xlo xhi
-500 500 ylo yhi
-0.05 0.05 zlo zhi

Masses

1 1


Atoms

1 1 1 -150 0 0
2 1 1 -129.15042477 2.50902624941 0
3 1 1 -108.28937958 0.0972232743807 0
4 1 1 -87.6094010475 -3.55496619134 0
5 1 1 -66.6386398336 -4.66274510004 0
6 1 1 -45.6620389099 -5.65381204491 0
7 1 1 -24.6628239152 -5.83538738435 0
8 1 1 -3.66478784666 -5.54819186756 0
9 1 1 17.1635744283 -2.86876563343 0


Bonds

0 1 1 2
1 2 2 3
2 3 3 4
3 1 4 5
4 2 5 6
5 3 6 7
6 1 7 8
7 2 8 9


Angles

1 1 1 2 3
2 1 2 3 4
3 1 3 4 5
4 1 4 5 6
5 1 5 6 7
6 1 6 7 8
7 1 7 8 9
