#Actin filament

3333 atoms
3332 bonds
3331 angles

1 atom types
3 bond types
1 angle types

-500 500 xlo xhi
-500 500 ylo yhi
-0.05 0.05 zlo zhi

Masses

1 1


Atoms

1 1 1 -150 0 0
2 1 1 -149.941221135 -0.0120434644286 0
3 1 1 -149.883060295 -0.0267851292194 0
4 1 1 -149.823501829 -0.0340507425571 0
5 1 1 -149.763619159 -0.0378011927551 0
6 1 1 -149.703817566 -0.032925803912 0
7 1 1 -149.646441425 -0.0153764892002 0
8 1 1 -149.587542547 -0.00393436768391 0
9 1 1 -149.528723379 0.00791069642227 0
10 1 1 -149.471017321 0.0243427037807 0
11 1 1 -149.413296336 0.040722198769 0
12 1 1 -149.35342956 0.0447183406441 0
13 1 1 -149.2934975 0.0475728493249 0
14 1 1 -149.234119085 0.0389586872025 0
15 1 1 -149.175332424 0.0269533352793 0
16 1 1 -149.115600539 0.0212874807436 0
17 1 1 -149.056268755 0.0123577848147 0
18 1 1 -148.996323746 0.0149260146444 0
19 1 1 -148.936409668 0.0181358818669 0
20 1 1 -148.877094104 0.0271726921937 0
21 1 1 -148.817174752 0.0302825463655 0
22 1 1 -148.757627743 0.0229236212892 0
23 1 1 -148.698440963 0.0130785693217 0
24 1 1 -148.639010684 0.0048298169258 0
25 1 1 -148.579040706 0.00293199178489 0
26 1 1 -148.520134079 -0.00847017023009 0
27 1 1 -148.461889136 -0.0228759542307 0
28 1 1 -148.402973465 -0.0342312936354 0
29 1 1 -148.344597668 -0.0480973084039 0
30 1 1 -148.285167461 -0.0563465803765 0
31 1 1 -148.22516749 -0.0562874593569 0
32 1 1 -148.165406745 -0.0616403412989 0
33 1 1 -148.10560994 -0.0665741076293 0
34 1 1 -148.045802715 -0.0713799246425 0
35 1 1 -147.985948645 -0.0755620598321 0
36 1 1 -147.926980594 -0.086642177873 0
37 1 1 -147.866985309 -0.0873943573936 0
38 1 1 -147.80753462 -0.0792940156624 0
39 1 1 -147.747737089 -0.0743690452706 0
40 1 1 -147.688206642 -0.0668773264792 0
41 1 1 -147.628207283 -0.0671546497351 0
42 1 1 -147.56884488 -0.0584308270489 0
43 1 1 -147.509337204 -0.0507603272692 0
44 1 1 -147.45134636 -0.0353635090355 0
45 1 1 -147.393322171 -0.0200928363657 0
46 1 1 -147.33461529 -0.00770323891358 0
47 1 1 -147.275810694 0.00421395311407 0
48 1 1 -147.2180901 0.0205948276504 0
49 1 1 -147.160956778 0.0389192250972 0
50 1 1 -147.101888648 0.0494527922911 0
51 1 1 -147.044034981 0.0653572959191 0
52 1 1 -146.986235636 0.0814580922059 0
53 1 1 -146.926426889 0.0862449247766 0
54 1 1 -146.86652787 0.0897245149037 0
55 1 1 -146.809012873 0.10681325664 0
56 1 1 -146.75231139 0.126433191854 0
57 1 1 -146.695928591 0.146950988452 0
58 1 1 -146.63838731 0.163951017389 0
59 1 1 -146.579615801 0.176030328954 0
60 1 1 -146.520593893 0.186819878359 0
61 1 1 -146.462371036 0.201314667639 0
62 1 1 -146.403583215 0.213314336176 0
63 1 1 -146.344738023 0.225029432126 0
64 1 1 -146.28612472 0.23785443523 0
65 1 1 -146.227548468 0.250847612509 0
66 1 1 -146.170808468 0.270355877834 0
67 1 1 -146.118482566 0.299715713204 0
68 1 1 -146.065246498 0.327390992116 0
69 1 1 -146.01816894 0.364589158667 0
70 1 1 -145.973374607 0.404507421935 0
71 1 1 -145.930541761 0.446523457864 0
72 1 1 -145.885692269 0.486379738151 0
73 1 1 -145.843131115 0.528670968502 0
74 1 1 -145.803283394 0.573528065365 0
75 1 1 -145.771921949 0.624679406728 0
76 1 1 -145.738456937 0.674479938724 0
77 1 1 -145.70213167 0.722234257606 0
78 1 1 -145.665956866 0.77010265627 0
79 1 1 -145.618594714 0.80693778229 0
80 1 1 -145.573835026 0.846894888273 0
81 1 1 -145.533172215 0.89101445158 0
82 1 1 -145.500396765 0.941271489424 0
83 1 1 -145.468414234 0.99203680917 0
84 1 1 -145.426562771 1.03503047277 0
85 1 1 -145.382123221 1.07534332855 0
86 1 1 -145.336911435 1.11478815627 0
87 1 1 -145.289473703 1.15152589737 0
88 1 1 -145.240850962 1.18668025697 0
89 1 1 -145.188024509 1.21512961238 0
90 1 1 -145.133563994 1.24031000782 0
91 1 1 -145.085753228 1.27656094891 0
92 1 1 -145.043370174 1.31903066395 0
93 1 1 -144.994989564 1.35451751465 0
94 1 1 -144.945463259 1.38838704486 0
95 1 1 -144.896187335 1.42261982655 0
96 1 1 -144.843042555 1.45047000398 0
97 1 1 -144.785932493 1.46886676386 0
98 1 1 -144.726556136 1.47749510846 0
99 1 1 -144.668815972 1.49380686446 0
100 1 1 -144.610995723 1.50983243392 0
101 1 1 -144.552567586 1.52347621479 0
102 1 1 -144.492842972 1.52921820877 0
103 1 1 -144.43311708 1.523489524 0
104 1 1 -144.373330575 1.51843246528 0
105 1 1 -144.313534572 1.51348898905 0
106 1 1 -144.256187403 1.49584523142 0
107 1 1 -144.19796117 1.48136400689 0
108 1 1 -144.13813347 1.47682018492 0
109 1 1 -144.078180386 1.47919246805 0
110 1 1 -144.018189322 1.48022795551 0
111 1 1 -143.958190507 1.47985090014 0
112 1 1 -143.898447849 1.47429979145 0
113 1 1 -143.838527355 1.4712120025 0
114 1 1 -143.77897941 1.46386066414 0
115 1 1 -143.71898728 1.4628888564 0
116 1 1 -143.659003088 1.4615116736 0
117 1 1 -143.600122413 1.47304710607 0
118 1 1 -143.541543376 1.48602772043 0
119 1 1 -143.482782057 1.49815650449 0
120 1 1 -143.424764544 1.51345252294 0
121 1 1 -143.365716339 1.5240972165 0
122 1 1 -143.306813555 1.53551921647 0
123 1 1 -143.247598158 1.54519065442 0
124 1 1 -143.18769582 1.54861262707 0
125 1 1 -143.128203635 1.54082289809 0
126 1 1 -143.070001402 1.5262455152 0
127 1 1 -143.011416433 1.5132916962 0
128 1 1 -142.952952164 1.49980358207 0
129 1 1 -142.89418892 1.48768412769 0
130 1 1 -142.834250456 1.49040083949 0
131 1 1 -142.774372068 1.49421903909 0
132 1 1 -142.71442822 1.49681425438 0
133 1 1 -142.656509649 1.5124807492 0
134 1 1 -142.597487465 1.52326879352 0
135 1 1 -142.537510498 1.52160646537 0
136 1 1 -142.477583826 1.51864099632 0
137 1 1 -142.417852166 1.512972772 0
138 1 1 -142.358049485 1.50811074077 0
139 1 1 -142.298389855 1.51449263176 0
140 1 1 -142.240849142 1.53149458485 0
141 1 1 -142.185577096 1.55483983973 0
142 1 1 -142.128308174 1.57273594575 0
143 1 1 -142.071350722 1.59159989748 0
144 1 1 -142.012741656 1.6044442486 0
145 1 1 -141.953020746 1.6102246375 0
146 1 1 -141.893020758 1.61018679906 0
147 1 1 -141.833069254 1.60777491099 0
148 1 1 -141.773927493 1.5976629346 0
149 1 1 -141.714928731 1.58674753018 0
150 1 1 -141.659650772 1.56341627825 0
151 1 1 -141.601514721 1.54857715589 0
152 1 1 -141.542474997 1.53788552256 0
153 1 1 -141.482535121 1.53520014421 0
154 1 1 -141.423005337 1.5277031562 0
155 1 1 -141.363474517 1.5202144046 0
156 1 1 -141.303614605 1.51611672838 0
157 1 1 -141.244203723 1.50772941081 0
158 1 1 -141.187995841 1.48673717437 0
159 1 1 -141.133386644 1.46188087605 0
160 1 1 -141.081681054 1.43144188701 0
161 1 1 -141.027558737 1.40554256709 0
162 1 1 -140.973869741 1.37875653213 0
163 1 1 -140.925125893 1.34377028793 0
164 1 1 -140.883149515 1.30089857593 0
165 1 1 -140.836666793 1.26295972338 0
166 1 1 -140.787411667 1.22869702376 0
167 1 1 -140.738870959 1.19342947966 0
168 1 1 -140.697808636 1.14968150091 0
169 1 1 -140.663205469 1.1006649643 0
170 1 1 -140.629285411 1.05117325151 0
171 1 1 -140.597417371 1.00033598156 0
172 1 1 -140.573070772 0.945497645062 0
173 1 1 -140.545398629 0.892259947411 0
174 1 1 -140.517531856 0.839123867709 0
175 1 1 -140.503868026 0.780700415584 0
176 1 1 -140.484728421 0.723834999624 0
177 1 1 -140.459719407 0.669295571681 0
178 1 1 -140.434426038 0.614887433371 0
179 1 1 -140.407867617 0.561085479622 0
180 1 1 -140.373101041 0.512184710199 0
181 1 1 -140.339532195 0.462454110163 0
182 1 1 -140.306023445 0.412682997528 0
183 1 1 -140.270398861 0.36440371649 0
184 1 1 -140.228518566 0.321438138285 0
185 1 1 -140.186601309 0.278508619222 0
186 1 1 -140.147666998 0.232856462529 0
187 1 1 -140.111967992 0.184632184414 0
188 1 1 -140.077932664 0.135219671752 0
189 1 1 -140.0474815 0.0835212518504 0
190 1 1 -140.013868659 0.0338203771121 0
191 1 1 -139.983239309 -0.0177726734748 0
192 1 1 -139.956248349 -0.0713589413254 0
193 1 1 -139.935215915 -0.127551794263 0
194 1 1 -139.912738782 -0.183182527457 0
195 1 1 -139.8887359 -0.238172178129 0
196 1 1 -139.860602566 -0.291167607003 0
197 1 1 -139.823630095 -0.33842262148 0
198 1 1 -139.78052046 -0.380154615812 0
199 1 1 -139.745054423 -0.428550485754 0
200 1 1 -139.70522998 -0.473428250277 0
201 1 1 -139.664084332 -0.517097870192 0
202 1 1 -139.623569269 -0.56135314834 0
203 1 1 -139.596634027 -0.614967444383 0
204 1 1 -139.575494512 -0.671120101661 0
205 1 1 -139.549024658 -0.72496568458 0
206 1 1 -139.52227038 -0.778670513155 0
207 1 1 -139.493252621 -0.831186888257 0
208 1 1 -139.459004895 -0.88045242703 0
209 1 1 -139.418457444 -0.924678032786 0
210 1 1 -139.375109967 -0.966162924618 0
211 1 1 -139.334473159 -1.0103064379 0
212 1 1 -139.294575237 -1.05511888958 0
213 1 1 -139.250761873 -1.09611143947 0
214 1 1 -139.210108544 -1.14023973917 0
215 1 1 -139.171475246 -1.18614690934 0
216 1 1 -139.130754992 -1.2302134603 0
217 1 1 -139.100927398 -1.28227414295 0
218 1 1 -139.069784562 -1.33355887511 0
219 1 1 -139.028171412 -1.37678324051 0
220 1 1 -138.986053387 -1.41951580333 0
221 1 1 -138.949366425 -1.46699281744 0
222 1 1 -138.908307786 -1.5107442537 0
223 1 1 -138.862736684 -1.54977340501 0
224 1 1 -138.819049623 -1.59090053331 0
225 1 1 -138.769818142 -1.62519719855 0
226 1 1 -138.724318393 -1.66430950927 0
227 1 1 -138.677878734 -1.70230106242 0
228 1 1 -138.632168087 -1.74116668608 0
229 1 1 -138.583971359 -1.7769028784 0
230 1 1 -138.535167529 -1.81180540162 0
231 1 1 -138.493146622 -1.85463346938 0
232 1 1 -138.451112612 -1.89744867702 0
233 1 1 -138.406618626 -1.93770144352 0
234 1 1 -138.357919083 -1.97274933215 0
235 1 1 -138.308490104 -2.00676074248 0
236 1 1 -138.256911882 -2.03741505742 0
237 1 1 -138.201054045 -2.05932172491 0
238 1 1 -138.145023919 -2.08078389917 0
239 1 1 -138.08937711 -2.10322120571 0
240 1 1 -138.033066458 -2.1239361871 0
241 1 1 -137.978793946 -2.14951927505 0
242 1 1 -137.925302353 -2.17669738247 0
243 1 1 -137.874108254 -2.20798898285 0
244 1 1 -137.83097426 -2.24969579878 0
245 1 1 -137.78686606 -2.29037093521 0
246 1 1 -137.748055466 -2.3361283146 0
247 1 1 -137.712851015 -2.38471480085 0
248 1 1 -137.670651041 -2.42736643916 0
249 1 1 -137.630244953 -2.47172123634 0
250 1 1 -137.594542447 -2.51994292254 0
251 1 1 -137.558230702 -2.56770752433 0
252 1 1 -137.518837894 -2.61296464243 0
253 1 1 -137.481699939 -2.6600897128 0
254 1 1 -137.445833307 -2.70818944987 0
255 1 1 -137.413851923 -2.75895549235 0
256 1 1 -137.380549365 -2.80886480688 0
257 1 1 -137.348720395 -2.85972654754 0
258 1 1 -137.314019702 -2.9086740898 0
259 1 1 -137.271097421 -2.95059875769 0
260 1 1 -137.226679911 -2.99093589693 0
261 1 1 -137.180143835 -3.02880928665 0
262 1 1 -137.136444031 -3.06992287415 0
263 1 1 -137.091111165 -3.10922848774 0
264 1 1 -137.048287042 -3.15125341511 0
265 1 1 -137.001696287 -3.18905951963 0
266 1 1 -136.957279359 -3.22939730016 0
267 1 1 -136.91777739 -3.27455916913 0
268 1 1 -136.880368407 -3.32146938125 0
269 1 1 -136.843139936 -3.3685229781 0
270 1 1 -136.806458204 -3.41600403266 0
271 1 1 -136.773384737 -3.46606545249 0
272 1 1 -136.745317667 -3.51909600568 0
273 1 1 -136.707366598 -3.56556875419 0
274 1 1 -136.664036734 -3.60707204225 0
275 1 1 -136.620381742 -3.64823320941 0
276 1 1 -136.575351477 -3.68788513478 0
277 1 1 -136.532526763 -3.72990945981 0
278 1 1 -136.487201656 -3.76922402005 0
279 1 1 -136.449248072 -3.81569471474 0
280 1 1 -136.411795111 -3.86256982235 0
281 1 1 -136.376521592 -3.91110618921 0
282 1 1 -136.343654913 -3.96130361316 0
283 1 1 -136.313222564 -4.01301311093 0
284 1 1 -136.283560211 -4.06516811868 0
285 1 1 -136.252934939 -4.11676359053 0
286 1 1 -136.218425892 -4.16584643514 0
287 1 1 -136.184510715 -4.21534149298 0
288 1 1 -136.146766709 -4.26198256956 0
289 1 1 -136.109078136 -4.30866845045 0
290 1 1 -136.075303443 -4.35825947921 0
291 1 1 -136.040145015 -4.40687927893 0
292 1 1 -135.991119098 -4.44146915363 0
293 1 1 -135.948020302 -4.48321234263 0
294 1 1 -135.904107921 -4.52409880499 0
295 1 1 -135.872150396 -4.57487986987 0
296 1 1 -135.838429233 -4.62450731381 0
297 1 1 -135.805835657 -4.67488249396 0
298 1 1 -135.775486103 -4.7266406295 0
299 1 1 -135.742977522 -4.7770707018 0
300 1 1 -135.706262203 -4.82452578903 0
301 1 1 -135.664961408 -4.86804870692 0
302 1 1 -135.629399052 -4.91637384365 0
303 1 1 -135.595168118 -4.96565105079 0
304 1 1 -135.553870659 -5.00917713352 0
305 1 1 -135.511973683 -5.05212644506 0
306 1 1 -135.475712818 -5.09992968445 0
307 1 1 -135.447803819 -5.1530435977 0
308 1 1 -135.424531292 -5.2083463055 0
309 1 1 -135.39206925 -5.25880634738 0
310 1 1 -135.357022114 -5.3075064321 0
311 1 1 -135.329400409 -5.36077031681 0
312 1 1 -135.293541344 -5.40887569509 0
313 1 1 -135.254439645 -5.4543845645 0
314 1 1 -135.219848257 -5.50340941393 0
315 1 1 -135.184664563 -5.55201093336 0
316 1 1 -135.145110204 -5.59712692492 0
317 1 1 -135.101915879 -5.63877125484 0
318 1 1 -135.056779602 -5.6783024642 0
319 1 1 -135.013929179 -5.72030057431 0
320 1 1 -134.976557516 -5.76724052312 0
321 1 1 -134.936362156 -5.81178637629 0
322 1 1 -134.891967717 -5.85214890639 0
323 1 1 -134.844344444 -5.88864580778 0
324 1 1 -134.797043047 -5.92555892023 0
325 1 1 -134.746884404 -5.95848475373 0
326 1 1 -134.700895671 -5.99702092408 0
327 1 1 -134.653704063 -6.03407429298 0
328 1 1 -134.603219843 -6.06649872107 0
329 1 1 -134.549738621 -6.09369723057 0
330 1 1 -134.499700636 -6.12680614301 0
331 1 1 -134.449614543 -6.15984223339 0
332 1 1 -134.396900001 -6.1884984208 0
333 1 1 -134.341587594 -6.21174788485 0
334 1 1 -134.285820534 -6.23388461942 0
335 1 1 -134.228904901 -6.25287437458 0
336 1 1 -134.170706766 -6.26746810737 0
337 1 1 -134.117057088 -6.29433280545 0
338 1 1 -134.059494427 -6.31126029967 0
339 1 1 -134.001092081 -6.32501406544 0
340 1 1 -133.942522563 -6.33803756507 0
341 1 1 -133.884349478 -6.35273083494 0
342 1 1 -133.825157179 -6.36254265232 0
343 1 1 -133.767272041 -6.37833222949 0
344 1 1 -133.710576009 -6.39796791142 0
345 1 1 -133.651833929 -6.41018952923 0
346 1 1 -133.592016352 -6.41486473703 0
347 1 1 -133.532018561 -6.41537952479 0
348 1 1 -133.472280542 -6.40977870803 0
349 1 1 -133.413657127 -6.39700000883 0
350 1 1 -133.353959106 -6.39098782401 0
351 1 1 -133.294433544 -6.38345739171 0
352 1 1 -133.234800452 -6.37683211243 0
353 1 1 -133.175092321 -6.37092117777 0
354 1 1 -133.115423566 -6.37721717763 0
355 1 1 -133.055753364 -6.38349945687 0
356 1 1 -132.995755663 -6.38297427389 0
357 1 1 -132.935989335 -6.37768409146 0
358 1 1 -132.876210757 -6.37253417002 0
359 1 1 -132.816864406 -6.36370181099 0
360 1 1 -132.758453873 -6.34998285979 0
361 1 1 -132.699524608 -6.33869828118 0
362 1 1 -132.640053857 -6.33074655931 0
363 1 1 -132.581359778 -6.3182964579 0
364 1 1 -132.521517985 -6.31394216661 0
365 1 1 -132.461531358 -6.31520888331 0
366 1 1 -132.401946994 -6.32225895457 0
367 1 1 -132.342014487 -6.32510406218 0
368 1 1 -132.282829564 -6.31524785259 0
369 1 1 -132.225989187 -6.29603401365 0
370 1 1 -132.168673802 -6.27828727776 0
371 1 1 -132.111937496 -6.25876827348 0
372 1 1 -132.05570535 -6.23784111986 0
373 1 1 -131.998932237 -6.21842943218 0
374 1 1 -131.94375125 -6.19486974817 0
375 1 1 -131.886719504 -6.1762316174 0
376 1 1 -131.830835755 -6.15439113679 0
377 1 1 -131.777669903 -6.12658120625 0
378 1 1 -131.720589395 -6.10809295098 0
379 1 1 -131.662355327 -6.0936432663 0
380 1 1 -131.602626581 -6.08794442221 0
381 1 1 -131.542705463 -6.08486876451 0
382 1 1 -131.483348843 -6.07610567842 0
383 1 1 -131.423366269 -6.07465973225 0
384 1 1 -131.36337695 -6.07352762196 0
385 1 1 -131.304371046 -6.08440435101 0
386 1 1 -131.246231358 -6.09922921815 0
387 1 1 -131.188508223 -6.11560113468 0
388 1 1 -131.130171917 -6.1296323672 0
389 1 1 -131.071321225 -6.14131979604 0
390 1 1 -131.011362083 -6.14353369451 0
391 1 1 -130.95147419 -6.13986761062 0
392 1 1 -130.891714499 -6.1452322556 0
393 1 1 -130.831795291 -6.14834488723 0
394 1 1 -130.771795323 -6.14840716566 0
395 1 1 -130.711817275 -6.14678428224 0
396 1 1 -130.651818602 -6.14718322958 0
397 1 1 -130.592296493 -6.13962554454 0
398 1 1 -130.532678782 -6.13286325404 0
399 1 1 -130.473184956 -6.12508606623 0
400 1 1 -130.413438588 -6.11957502971 0
401 1 1 -130.35353737 -6.12301654078 0
402 1 1 -130.293542803 -6.1222091142 0
403 1 1 -130.233773354 -6.1169543055 0
404 1 1 -130.174866785 -6.10555184672 0
405 1 1 -130.116239205 -6.09279226493 0
406 1 1 -130.057725396 -6.07952070964 0
407 1 1 -129.997778939 -6.07698648256 0
408 1 1 -129.938420035 -6.06823888763 0
409 1 1 -129.878428951 -6.06927325183 0
410 1 1 -129.818496372 -6.06642966079 0
411 1 1 -129.758529932 -6.06442317601 0
412 1 1 -129.699116263 -6.05605561836 0
413 1 1 -129.639791523 -6.04707924795 0
414 1 1 -129.583852995 -6.02537945548 0
415 1 1 -129.530345164 -5.99823333027 0
416 1 1 -129.474097524 -5.97734785714 0
417 1 1 -129.415108321 -5.96638090964 0
418 1 1 -129.357740856 -5.94880325567 0
419 1 1 -129.300298614 -5.93147152586 0
420 1 1 -129.244019461 -5.91067112016 0
421 1 1 -129.184875612 -5.9005713613 0
422 1 1 -129.125833063 -5.88989533904 0
423 1 1 -129.066882026 -5.87872505828 0
424 1 1 -129.008151286 -5.86644905742 0
425 1 1 -128.949170194 -5.85543857026 0
426 1 1 -128.88965337 -5.84783938033 0
427 1 1 -128.829882934 -5.84259582021 0
428 1 1 -128.770640945 -5.83308862785 0
429 1 1 -128.710742487 -5.83657787036 0
430 1 1 -128.650935271 -5.83177195376 0
431 1 1 -128.590958985 -5.83345871934 0
432 1 1 -128.530974607 -5.83482779925 0
433 1 1 -128.471185163 -5.82980561432 0
434 1 1 -128.411367359 -5.82513331469 0
435 1 1 -128.351709583 -5.83153251708 0
436 1 1 -128.291783627 -5.83451240247 0
437 1 1 -128.232104813 -5.84071233602 0
438 1 1 -128.17223695 -5.84469215402 0
439 1 1 -128.112289996 -5.84721459888 0
440 1 1 -128.052293968 -5.84790495611 0
441 1 1 -127.992793642 -5.84017764626 0
442 1 1 -127.934190343 -5.82730701134 0
443 1 1 -127.876085375 -5.81234663801 0
444 1 1 -127.816180141 -5.808975755 0
445 1 1 -127.756473241 -5.80305239666 0
446 1 1 -127.698001156 -5.78959820622 0
447 1 1 -127.638039524 -5.79174359969 0
448 1 1 -127.578360259 -5.78554801471 0
449 1 1 -127.518372387 -5.78434167746 0
450 1 1 -127.458434592 -5.78707312018 0
451 1 1 -127.398792449 -5.78052982456 0
452 1 1 -127.338942906 -5.77628338978 0
453 1 1 -127.280169683 -5.76421242159 0
454 1 1 -127.222713178 -5.74692803464 0
455 1 1 -127.165864652 -5.72773832265 0
456 1 1 -127.109461732 -5.7072759008 0
457 1 1 -127.056031842 -5.67997669194 0
458 1 1 -127.004248305 -5.64967049897 0
459 1 1 -126.950611799 -5.62277951092 0
460 1 1 -126.895452876 -5.59916821706 0
461 1 1 -126.842486428 -5.57098035831 0
462 1 1 -126.791022676 -5.54013425325 0
463 1 1 -126.738521924 -5.51108823799 0
464 1 1 -126.684819482 -5.48432916942 0
465 1 1 -126.630334456 -5.45920185497 0
466 1 1 -126.578262063 -5.42939470968 0
467 1 1 -126.525142443 -5.40149657494 0
468 1 1 -126.471359512 -5.37489964982 0
469 1 1 -126.418692667 -5.34615589528 0
470 1 1 -126.366017114 -5.31742810178 0
471 1 1 -126.314813836 -5.28615152473 0
472 1 1 -126.267255296 -5.24957031015 0
473 1 1 -126.219314557 -5.21349143043 0
474 1 1 -126.169850568 -5.17953095645 0
475 1 1 -126.119031244 -5.14763430547 0
476 1 1 -126.071191296 -5.11142188534 0
477 1 1 -126.017923939 -5.08380687834 0
478 1 1 -125.966385618 -5.05308552603 0
479 1 1 -125.915965327 -5.02056177691 0
480 1 1 -125.873687477 -4.97798733124 0
481 1 1 -125.825865613 -4.94175103282 0
482 1 1 -125.775599319 -4.90898977992 0
483 1 1 -125.724541332 -4.87747657768 0
484 1 1 -125.677307834 -4.84047662222 0
485 1 1 -125.633305314 -4.79968718429 0
486 1 1 -125.58891644 -4.75931853479 0
487 1 1 -125.547391588 -4.71600933667 0
488 1 1 -125.512443775 -4.66723792739 0
489 1 1 -125.48482519 -4.6139724247 0
490 1 1 -125.454319132 -4.5623063775 0
491 1 1 -125.414863102 -4.51710436754 0
492 1 1 -125.379324786 -4.46876154906 0
493 1 1 -125.34268798 -4.42124582053 0
494 1 1 -125.306155452 -4.3736498718 0
495 1 1 -125.273358089 -4.32340713113 0
496 1 1 -125.242902396 -4.27171137908 0
497 1 1 -125.210732631 -4.22106450119 0
498 1 1 -125.178018633 -4.17076744083 0
499 1 1 -125.142797483 -4.12219305862 0
500 1 1 -125.095802664 -4.0848904174 0
501 1 1 -125.045951949 -4.05150020724 0
502 1 1 -124.997187793 -4.01654227304 0
503 1 1 -124.945078504 -3.9867996776 0
504 1 1 -124.89690082 -3.95103781587 0
505 1 1 -124.848207695 -3.91598101036 0
506 1 1 -124.799566169 -3.88085264672 0
507 1 1 -124.752123828 -3.8441208589 0
508 1 1 -124.708202649 -3.80324384739 0
509 1 1 -124.664262033 -3.76238773045 0
510 1 1 -124.616873427 -3.72558664433 0
511 1 1 -124.574500997 -3.68310632854 0
512 1 1 -124.535539821 -3.63747709713 0
513 1 1 -124.498347548 -3.59039488372 0
514 1 1 -124.471137557 -3.53691950276 0
515 1 1 -124.442439399 -3.48422779819 0
516 1 1 -124.408309807 -3.43488034693 0
517 1 1 -124.371606664 -3.38741584095 0
518 1 1 -124.333333161 -3.3412082768 0
519 1 1 -124.290406245 -3.29928835472 0
520 1 1 -124.243245206 -3.26219608673 0
521 1 1 -124.197536473 -3.22332821054 0
522 1 1 -124.153031265 -3.18308785198 0
523 1 1 -124.115589269 -3.13620398543 0
524 1 1 -124.08131084 -3.08695980545 0
525 1 1 -124.048669623 -3.03661548119 0
526 1 1 -124.019505565 -2.98418020938 0
527 1 1 -123.994800818 -2.92950228454 0
528 1 1 -123.967505376 -2.87607046985 0
529 1 1 -123.944235352 -2.82076670851 0
530 1 1 -123.924961322 -2.7639467143 0
531 1 1 -123.903343564 -2.70797643162 0
532 1 1 -123.881437992 -2.6521181652 0
533 1 1 -123.856998126 -2.59732133184 0
534 1 1 -123.845134664 -2.53850587245 0
535 1 1 -123.838796346 -2.4788415973 0
536 1 1 -123.825703704 -2.4202874965 0
537 1 1 -123.808369501 -2.36284600097 0
538 1 1 -123.785438463 -2.3074008256 0
539 1 1 -123.771866839 -2.24895588548 0
540 1 1 -123.762161493 -2.18974603613 0
541 1 1 -123.745111576 -2.13221951765 0
542 1 1 -123.725446473 -2.07553368404 0
543 1 1 -123.703860273 -2.01955122265 0
544 1 1 -123.671854012 -1.96880086061 0
545 1 1 -123.64278862 -1.91631083321 0
546 1 1 -123.630614225 -1.85755894725 0
547 1 1 -123.627914412 -1.7976197196 0
548 1 1 -123.626369416 -1.73763961466 0
549 1 1 -123.614816693 -1.67876233051 0
550 1 1 -123.592285342 -1.62315353412 0
551 1 1 -123.568369446 -1.56812599658 0
552 1 1 -123.55137305 -1.51058364245 0
553 1 1 -123.535649928 -1.45268041759 0
554 1 1 -123.512538141 -1.3973103418 0
555 1 1 -123.492069489 -1.34090968328 0
556 1 1 -123.462841811 -1.28850984703 0
557 1 1 -123.423577315 -1.24314136316 0
558 1 1 -123.380759029 -1.20111048815 0
559 1 1 -123.338611186 -1.15840733446 0
560 1 1 -123.297575697 -1.11463418535 0
561 1 1 -123.252658809 -1.0748538739 0
562 1 1 -123.209214348 -1.0334705584 0
563 1 1 -123.163659515 -0.994422418162 0
564 1 1 -123.117479359 -0.956115849956 0
565 1 1 -123.07221091 -0.916736064495 0
566 1 1 -123.023303813 -0.881978390737 0
567 1 1 -122.972382393 -0.850244985723 0
568 1 1 -122.922131954 -0.817459419379 0
569 1 1 -122.872791744 -0.783319360028 0
570 1 1 -122.823585157 -0.748986987834 0
571 1 1 -122.779300053 -0.708504527755 0
572 1 1 -122.73140914 -0.672359534911 0
573 1 1 -122.685285362 -0.633985101902 0
574 1 1 -122.640544297 -0.594007145025 0
575 1 1 -122.59861648 -0.551087939706 0
576 1 1 -122.559662626 -0.505452456981 0
577 1 1 -122.517003835 -0.4632597146 0
578 1 1 -122.470536575 -0.425301925294 0
579 1 1 -122.425475883 -0.385684580081 0
580 1 1 -122.381436391 -0.344935062651 0
581 1 1 -122.335218878 -0.306673574581 0
582 1 1 -122.287367023 -0.2704768898 0
583 1 1 -122.245825602 -0.227183584395 0
584 1 1 -122.207437691 -0.181071022955 0
585 1 1 -122.161472217 -0.142507112889 0
586 1 1 -122.109445959 -0.11261951505 0
587 1 1 -122.05585288 -0.085642082589 0
588 1 1 -122.001227644 -0.0608210518542 0
589 1 1 -121.947638919 -0.0338349696818 0
590 1 1 -121.895888362 -0.00347249656615 0
591 1 1 -121.845220269 0.0286638438062 0
592 1 1 -121.78959788 0.0511616192267 0
593 1 1 -121.732685684 0.0701616706181 0
594 1 1 -121.675364115 0.0878884223985 0
595 1 1 -121.618598751 0.107322757608 0
596 1 1 -121.563903212 0.13198848397 0
597 1 1 -121.508776569 0.155675045987 0
598 1 1 -121.454131624 0.18045265622 0
599 1 1 -121.399188596 0.204562066884 0
600 1 1 -121.346681771 0.233597102435 0
601 1 1 -121.296135871 0.265925294976 0
602 1 1 -121.247825032 0.301507071255 0
603 1 1 -121.195898367 0.331567368607 0
604 1 1 -121.143669885 0.361100157954 0
605 1 1 -121.091238829 0.390271795357 0
606 1 1 -121.035784471 0.413180617849 0
607 1 1 -120.980579049 0.43668298847 0
608 1 1 -120.927552236 0.464757122988 0
609 1 1 -120.877829157 0.498337109188 0
610 1 1 -120.827522057 0.531035666534 0
611 1 1 -120.778342579 0.565406859734 0
612 1 1 -120.730108163 0.601092166814 0
613 1 1 -120.68003957 0.634154774218 0
614 1 1 -120.632574002 0.6708565428 0
615 1 1 -120.585647875 0.708245561004 0
616 1 1 -120.537850694 0.744514409909 0
617 1 1 -120.487765833 0.77755236846 0
618 1 1 -120.434577681 0.805319624847 0
619 1 1 -120.382072903 0.834358362969 0
620 1 1 -120.326183053 0.856183225645 0
621 1 1 -120.274013873 0.885820645946 0
622 1 1 -120.223786373 0.918641344202 0
623 1 1 -120.177692311 0.957051465428 0
624 1 1 -120.128169321 0.990925843494 0
625 1 1 -120.081652131 1.02882242692 0
626 1 1 -120.029278294 1.05809666883 0
627 1 1 -119.974374645 1.0822956207 0
628 1 1 -119.924171352 1.11515333495 0
629 1 1 -119.870990981 1.14293548934 0
630 1 1 -119.814323501 1.16265342036 0
631 1 1 -119.75984725 1.18779975236 0
632 1 1 -119.706435273 1.21513399269 0
633 1 1 -119.654780959 1.24565991406 0
634 1 1 -119.605388511 1.27972435373 0
635 1 1 -119.561703647 1.32085381615 0
636 1 1 -119.513468425 1.35653803357 0
637 1 1 -119.469019731 1.39684080728 0
638 1 1 -119.415077135 1.42311239556 0
639 1 1 -119.362165747 1.45140347296 0
640 1 1 -119.306897441 1.47475758095 0
641 1 1 -119.255106504 1.50505112466 0
642 1 1 -119.20236141 1.53365103867 0
643 1 1 -119.153295421 1.56818404801 0
644 1 1 -119.106187783 1.60534411254 0
645 1 1 -119.061930489 1.64585697467 0
646 1 1 -119.018456786 1.68720956918 0
647 1 1 -118.974972405 1.728550936 0
648 1 1 -118.934068755 1.77244730767 0
649 1 1 -118.887909747 1.8107793569 0
650 1 1 -118.83809831 1.84422813404 0
651 1 1 -118.789502815 1.87942014901 0
652 1 1 -118.745113659 1.91978848871 0
653 1 1 -118.69767718 1.95652784675 0
654 1 1 -118.64530647 1.98580768121 0
655 1 1 -118.593958978 2.01684693274 0
656 1 1 -118.541306351 2.04561672375 0
657 1 1 -118.493513416 2.08189116845 0
658 1 1 -118.447584674 2.12049881815 0
659 1 1 -118.405722389 2.16348194393 0
660 1 1 -118.35996124 2.20228809401 0
661 1 1 -118.308359964 2.23290358458 0
662 1 1 -118.262859563 2.27201513712 0
663 1 1 -118.213626475 2.30630949622 0
664 1 1 -118.164385917 2.34059312786 0
665 1 1 -118.113779759 2.37282691085 0
666 1 1 -118.070416885 2.41429570809 0
667 1 1 -118.036789478 2.463986729 0
668 1 1 -117.998876255 2.51049035761 0
669 1 1 -117.964410083 2.55960331929 0
670 1 1 -117.927685648 2.6070513526 0
671 1 1 -117.893913447 2.65664407811 0
672 1 1 -117.856921844 2.70388411727 0
673 1 1 -117.824687268 2.7544897704 0
674 1 1 -117.794939909 2.80659634027 0
675 1 1 -117.759317129 2.85487695269 0
676 1 1 -117.723269273 2.90284102327 0
677 1 1 -117.687277961 2.95084753808 0
678 1 1 -117.655378789 3.00166527969 0
679 1 1 -117.617479741 3.04818046126 0
680 1 1 -117.584066982 3.09801606652 0
681 1 1 -117.552898568 3.14928525782 0
682 1 1 -117.521179986 3.20021591217 0
683 1 1 -117.493147677 3.25326484886 0
684 1 1 -117.46840819 3.30792706411 0
685 1 1 -117.442181435 3.36189147177 0
686 1 1 -117.416120781 3.4159362895 0
687 1 1 -117.391491555 3.47064827371 0
688 1 1 -117.371907845 3.52736227817 0
689 1 1 -117.355417728 3.58505175771 0
690 1 1 -117.334110261 3.64114089959 0
691 1 1 -117.3191473 3.6992452008 0
692 1 1 -117.305057511 3.7575673906 0
693 1 1 -117.286328572 3.81456938058 0
694 1 1 -117.25791963 3.86741757848 0
695 1 1 -117.226531208 3.91855237056 0
696 1 1 -117.203590792 3.97399366663 0
697 1 1 -117.185157649 4.03109199617 0
698 1 1 -117.174546924 4.09014631453 0
699 1 1 -117.164560298 4.14930937147 0
700 1 1 -117.153081504 4.20820111358 0
701 1 1 -117.135247438 4.26548938531 0
702 1 1 -117.115343802 4.32209190544 0
703 1 1 -117.107812386 4.38161734345 0
704 1 1 -117.099663632 4.44106141638 0
705 1 1 -117.091013313 4.50043457513 0
706 1 1 -117.089796082 4.56042222677 0
707 1 1 -117.096427004 4.62005469172 0
708 1 1 -117.106917109 4.67913055564 0
709 1 1 -117.11959921 4.73777494418 0
710 1 1 -117.1319575 4.79648842372 0
711 1 1 -117.149227731 4.85394918524 0
712 1 1 -117.167557176 4.91108088769 0
713 1 1 -117.184701901 4.96857922165 0
714 1 1 -117.202373036 5.02591796068 0
715 1 1 -117.223944568 5.08190607554 0
716 1 1 -117.245614425 5.13785620791 0
717 1 1 -117.273395177 5.19103731183 0
718 1 1 -117.296389617 5.24645622301 0
719 1 1 -117.305796878 5.30571416295 0
720 1 1 -117.30707157 5.36570062108 0
721 1 1 -117.321623819 5.42390914332 0
722 1 1 -117.337469966 5.48177882135 0
723 1 1 -117.364681015 5.53525366391 0
724 1 1 -117.396563343 5.58608197468 0
725 1 1 -117.426976571 5.63780272055 0
726 1 1 -117.461180914 5.68709838928 0
727 1 1 -117.492837995 5.73806729327 0
728 1 1 -117.522264153 5.79035592725 0
729 1 1 -117.549786911 5.84367100755 0
730 1 1 -117.573463525 5.89880192421 0
731 1 1 -117.599652479 5.95278468692 0
732 1 1 -117.62987741 6.00461569631 0
733 1 1 -117.656933373 6.05816917297 0
734 1 1 -117.681167564 6.11305727741 0
735 1 1 -117.698656945 6.17045171563 0
736 1 1 -117.706700215 6.22991015324 0
737 1 1 -117.712528759 6.28962638288 0
738 1 1 -117.720153793 6.34913990109 0
739 1 1 -117.732835751 6.40778432077 0
740 1 1 -117.739436143 6.46742017257 0
741 1 1 -117.750972973 6.52630057293 0
742 1 1 -117.756828233 6.58601418894 0
743 1 1 -117.766268468 6.64526688472 0
744 1 1 -117.779348889 6.70382371692 0
745 1 1 -117.791862837 6.76250421699 0
746 1 1 -117.806736348 6.82063147988 0
747 1 1 -117.82487399 6.87782436345 0
748 1 1 -117.841889603 6.93536103808 0
749 1 1 -117.85134819 6.99461080707 0
750 1 1 -117.867513717 7.05239208203 0
751 1 1 -117.878814075 7.11131832337 0
752 1 1 -117.892562292 7.16972197487 0
753 1 1 -117.907034971 7.22795033205 0
754 1 1 -117.921733029 7.28612220743 0
755 1 1 -117.929677893 7.3455938741 0