#Actin filament

27 atoms
26 bonds
25 angles

1 atom types
3 bond types
1 angle types

-500 500 xlo xhi
-500 500 ylo yhi
-0.05 0.05 zlo zhi

Masses

1 1


Atoms

1 1 1 -150 0 0
2 1 1 -142.77139255 -0.556537803486 0
3 1 1 -135.60467499 -1.65228385967 0
4 1 1 -128.585908707 -3.46871438814 0
5 1 1 -121.616985275 -5.46786575775 0
6 1 1 -114.558174451 -7.12185782457 0
7 1 1 -107.684950094 -9.42864930519 0
8 1 1 -100.634062276 -11.1160973739 0
9 1 1 -93.6224494682 -12.9599481888 0
10 1 1 -86.5426491822 -14.5216549186 0
11 1 1 -79.3938637453 -15.7288693887 0
12 1 1 -72.4094789434 -17.6733150522 0
13 1 1 -65.8762861153 -20.8165445174 0
14 1 1 -59.5429113297 -24.3451226766 0
15 1 1 -53.0343009493 -27.5389434162 0
16 1 1 -46.7459395633 -31.1471300908 0
17 1 1 -40.4170817917 -34.6838035711 0
18 1 1 -34.0355004148 -38.1244312944 0
19 1 1 -27.3423420007 -40.9108502226 0
20 1 1 -20.5364578771 -43.4093380245 0
21 1 1 -13.8394461219 -46.1864828805 0
22 1 1 -6.88802541899 -48.2456696644 0
23 1 1 0.0636606430141 -50.3039604348 0
24 1 1 6.72407730909 -53.167760329 0
25 1 1 12.9911370797 -56.8128202505 0
26 1 1 19.7011437793 -59.5584185626 0
27 1 1 26.0481600053 -63.0623998735 0


Bonds

0 1 1 2
1 2 2 3
2 3 3 4
3 1 4 5
4 2 5 6
5 3 6 7
6 1 7 8
7 2 8 9
8 3 9 10
9 1 10 11
10 2 11 12
11 3 12 13
12 1 13 14
13 2 14 15
14 3 15 16
15 1 16 17
16 2 17 18
17 3 18 19
18 1 19 20
19 2 20 21
20 3 21 22
21 1 22 23
22 2 23 24
23 3 24 25
24 1 25 26
25 2 26 27


Angles

1 1 1 2 3
2 1 2 3 4
3 1 3 4 5
4 1 4 5 6
5 1 5 6 7
6 1 6 7 8
7 1 7 8 9
8 1 8 9 10
9 1 9 10 11
10 1 10 11 12
11 1 11 12 13
12 1 12 13 14
13 1 13 14 15
14 1 14 15 16
15 1 15 16 17
16 1 16 17 18
17 1 17 18 19
18 1 18 19 20
19 1 19 20 21
20 1 20 21 22
21 1 21 22 23
22 1 22 23 24
23 1 23 24 25
24 1 24 25 26
25 1 25 26 27
