#Actin filament

5 atoms
4 bonds
3 angles

1 atom types
3 bond types
1 angle types

-500 500 xlo xhi
-500 500 ylo yhi
-0.05 0.05 zlo zhi

Masses

1 1


Atoms

1 1 1 -150 0 0
2 1 1 -113.239903325 -4.20657728612 0
3 1 1 -77.1062299183 -12.1663289231 0
4 1 1 -43.528935783 -27.7087006388 0
5 1 1 -11.051358042 -45.4345840887 0


Bonds

0 1 1 2
1 2 2 3
2 3 3 4
3 1 4 5


Angles

1 1 1 2 3
2 1 2 3 4
3 1 3 4 5
