#Actin filament

1250 atoms
1249 bonds
1248 angles

1 atom types
3 bond types
1 angle types

-500 500 xlo xhi
-500 500 ylo yhi
-0.05 0.05 zlo zhi

Masses

1 1


Atoms

1 1 1 -150 0 0
2 1 1 -149.84057219 -0.013519369556 0
3 1 1 -149.684090899 -0.046890099502 0
4 1 1 -149.533824418 -0.101844486903 0
5 1 1 -149.381311718 -0.150216754259 0
6 1 1 -149.223556573 -0.17692470027 0
7 1 1 -149.068563092 -0.216636421014 0
8 1 1 -148.908714157 -0.223587541214 0
9 1 1 -148.748744632 -0.22046489515 0
10 1 1 -148.588757233 -0.218456871925 0
11 1 1 -148.428776886 -0.215949168943 0
12 1 1 -148.268920889 -0.209162399193 0
13 1 1 -148.109980418 -0.190779614979 0
14 1 1 -147.95389948 -0.155583866659 0
15 1 1 -147.79844992 -0.117696740257 0
16 1 1 -147.644187355 -0.0752342732922 0
17 1 1 -147.491934584 -0.0260499908099 0
18 1 1 -147.337027616 0.0139978703929 0
19 1 1 -147.183385964 0.0586548157186 0
20 1 1 -147.029875229 0.103759741181 0
21 1 1 -146.873245604 0.136427166368 0
22 1 1 -146.71530426 0.162010986128 0
23 1 1 -146.557501587 0.18843666156 0
24 1 1 -146.397792447 0.198079829825 0
25 1 1 -146.238298551 0.210795849531 0
26 1 1 -146.078632593 0.200462327077 0
27 1 1 -145.918641357 0.202136960359 0
28 1 1 -145.760525046 0.226616185055 0
29 1 1 -145.6040555 0.260041941552 0
30 1 1 -145.445911254 0.284340033469 0
31 1 1 -145.287320514 0.305529117399 0
32 1 1 -145.127575296 0.314554923728 0
33 1 1 -144.968131995 0.327890364356 0
34 1 1 -144.809615258 0.349626138535 0
35 1 1 -144.650223117 0.363559745101 0
36 1 1 -144.491854606 0.38635041973 0
37 1 1 -144.332433836 0.399952550546 0
38 1 1 -144.173161242 0.415192006258 0
39 1 1 -144.013509391 0.404642778479 0
40 1 1 -143.853537201 0.401659739051 0
41 1 1 -143.694481504 0.419017308329 0
42 1 1 -143.535140718 0.433526411289 0
43 1 1 -143.375146671 0.432146298091 0
44 1 1 -143.218392254 0.400083035137 0
45 1 1 -143.062099136 0.365841811452 0
46 1 1 -142.904983155 0.335599979835 0
47 1 1 -142.752232757 0.287983637806 0
48 1 1 -142.603303099 0.229503239514 0
49 1 1 -142.448252629 0.190014613781 0
50 1 1 -142.306385062 0.11603087536 0
51 1 1 -142.161452963 0.0482467563066 0
52 1 1 -142.017713726 -0.0220314882076 0
53 1 1 -141.879468616 -0.102581407506 0
54 1 1 -141.740985571 -0.182721573994 0
55 1 1 -141.605391065 -0.267657608696 0
56 1 1 -141.478903324 -0.365641543136 0
57 1 1 -141.3390364 -0.44334124408 0
58 1 1 -141.212307865 -0.54101354548 0
59 1 1 -141.087234033 -0.640795991292 0
60 1 1 -140.96457038 -0.743526844313 0
61 1 1 -140.848630238 -0.853789636839 0
62 1 1 -140.728160793 -0.959084997501 0
63 1 1 -140.629330213 -1.08491232564 0
64 1 1 -140.528487141 -1.20913259264 0
65 1 1 -140.443722492 -1.34483430361 0
66 1 1 -140.346572885 -1.47196397675 0
67 1 1 -140.26797193 -1.61132641748 0
68 1 1 -140.182591428 -1.74664149347 0
69 1 1 -140.110186511 -1.88932130282 0
70 1 1 -140.068302693 -2.04374198076 0
71 1 1 -140.054314462 -2.20312933724 0
72 1 1 -140.028458871 -2.36102641899 0
73 1 1 -140.000495301 -2.51856383911 0
74 1 1 -139.978980854 -2.67711076772 0
75 1 1 -139.958604504 -2.83580797744 0
76 1 1 -139.93017565 -2.99326209851 0
77 1 1 -139.897643599 -3.14991989655 0
78 1 1 -139.898087356 -3.30991928118 0
79 1 1 -139.893764972 -3.46986088612 0
80 1 1 -139.891431783 -3.62984387343 0
81 1 1 -139.903133471 -3.78941539502 0
82 1 1 -139.911748467 -3.94918329492 0
83 1 1 -139.932700556 -4.10780551893 0
84 1 1 -139.930368108 -4.26778851704 0
85 1 1 -139.915673638 -4.42711231489 0
86 1 1 -139.900809051 -4.58642033117 0
87 1 1 -139.853216908 -4.73917827005 0
88 1 1 -139.799472253 -4.88988166113 0
89 1 1 -139.761682104 -5.04535482491 0
90 1 1 -139.734833696 -5.20308612475 0
91 1 1 -139.702328794 -5.35974955823 0
92 1 1 -139.669759659 -5.51639965063 0
93 1 1 -139.63549354 -5.672687312 0
94 1 1 -139.595775889 -5.82767927367 0
95 1 1 -139.560090236 -5.9836489314 0
96 1 1 -139.48988936 -6.127425971 0
97 1 1 -139.407461437 -6.26455961909 0
98 1 1 -139.35725334 -6.4164778437 0
99 1 1 -139.316971968 -6.5713242549 0
100 1 1 -139.302144697 -6.73063574867 0
101 1 1 -139.264238746 -6.88608071932 0
102 1 1 -139.233448311 -7.04309011097 0
103 1 1 -139.167631747 -7.18892625154 0
104 1 1 -139.096423554 -7.33220707127 0
105 1 1 -139.035821623 -7.4802861245 0
106 1 1 -139.004251844 -7.63714067198 0
107 1 1 -138.935904398 -7.78180796793 0
108 1 1 -138.865428417 -7.92545035772 0
109 1 1 -138.790090464 -8.06660344083 0
110 1 1 -138.712848145 -8.20672347573 0
111 1 1 -138.610348375 -8.32958029107 0
112 1 1 -138.493475517 -8.43885396103 0
113 1 1 -138.390448641 -8.56126908638 0
114 1 1 -138.268113384 -8.66439078533 0
115 1 1 -138.128619213 -8.74275771945 0
116 1 1 -137.978219957 -8.79734767921 0
117 1 1 -137.820950868 -8.82678292538 0
118 1 1 -137.663053138 -8.85263455994 0
119 1 1 -137.505196959 -8.87873870809 0
120 1 1 -137.348772829 -8.91237635845 0
121 1 1 -137.192268843 -8.94564049265 0
122 1 1 -137.033142976 -8.9623425408 0
123 1 1 -136.874370091 -8.98212058436 0
124 1 1 -136.714399527 -8.98518954127 0
125 1 1 -136.555254166 -8.96867426942 0
126 1 1 -136.396254653 -8.98653916967 0
127 1 1 -136.246917154 -9.04397009876 0
128 1 1 -136.094556627 -9.0928195578 0
129 1 1 -135.939285214 -9.13143028431 0
130 1 1 -135.784411977 -9.17160839652 0
131 1 1 -135.624460157 -9.17553459719 0
132 1 1 -135.465008465 -9.18876932484 0
133 1 1 -135.305676159 -9.20337125051 0
134 1 1 -135.147803298 -9.2293743247 0
135 1 1 -134.991627407 -9.26414631056 0
136 1 1 -134.840221442 -9.31587863856 0
137 1 1 -134.686566577 -9.36049009844 0
138 1 1 -134.539430211 -9.42334620274 0
139 1 1 -134.393209976 -9.48830498081 0
140 1 1 -134.246228389 -9.55152217142 0
141 1 1 -134.11354801 -9.64094206345 0
142 1 1 -133.978481588 -9.72671537789 0
143 1 1 -133.856561066 -9.83032708792 0
144 1 1 -133.735060258 -9.93443065938 0
145 1 1 -133.639927279 -10.0630763599 0
146 1 1 -133.528185588 -10.1775918378 0
147 1 1 -133.437034293 -10.309088763 0
148 1 1 -133.343338485 -10.4387849293 0
149 1 1 -133.236476295 -10.5578667176 0
150 1 1 -133.129144602 -10.6765255048 0
151 1 1 -133.029304006 -10.801552923 0
152 1 1 -132.931714521 -10.9283452435 0
153 1 1 -132.813902308 -11.0366054959 0
154 1 1 -132.705838402 -11.154597836 0
155 1 1 -132.588109277 -11.2629484391 0
156 1 1 -132.458427748 -11.3566645044 0
157 1 1 -132.320091571 -11.4370579263 0
158 1 1 -132.189118584 -11.5289604649 0
159 1 1 -132.04978898 -11.6076196115 0
160 1 1 -131.893702235 -11.6427896017 0
161 1 1 -131.744700647 -11.701086485 0
162 1 1 -131.589818683 -11.7412309397 0
163 1 1 -131.441929109 -11.8022938101 0
164 1 1 -131.295985271 -11.867871216 0
165 1 1 -131.150286422 -11.9339911472 0
166 1 1 -131.005483705 -12.0020512166 0
167 1 1 -130.850376775 -12.0413174929 0
168 1 1 -130.693905108 -12.0747333178 0
169 1 1 -130.535868652 -12.0997228886 0
170 1 1 -130.376240214 -12.1106206648 0
171 1 1 -130.222800604 -12.1559669565 0
172 1 1 -130.069134271 -12.2005388998 0
173 1 1 -129.915172149 -12.2440781338 0
174 1 1 -129.773507663 -12.3184499935 0
175 1 1 -129.632046122 -12.3932071496 0
176 1 1 -129.484858169 -12.4559423599 0
177 1 1 -129.346267548 -12.5358963455 0
178 1 1 -129.211061682 -12.6214496831 0
179 1 1 -129.080516947 -12.713959533 0
180 1 1 -128.968622402 -12.8283256588 0
181 1 1 -128.860949238 -12.9466746753 0
182 1 1 -128.743467027 -13.055292953 0
183 1 1 -128.648366838 -13.1839628953 0
184 1 1 -128.551977783 -13.3116701779 0
185 1 1 -128.457107048 -13.4405093937 0
186 1 1 -128.372289852 -13.5761782677 0
187 1 1 -128.308781155 -13.7230341337 0
188 1 1 -128.258097969 -13.8747945192 0
189 1 1 -128.220043858 -14.0302032856 0
190 1 1 -128.154654098 -14.1762312943 0
191 1 1 -128.096260414 -14.3251949733 0
192 1 1 -128.02833189 -14.4700594466 0
193 1 1 -127.953921132 -14.6117035043 0
194 1 1 -127.887549657 -14.7572879379 0
195 1 1 -127.819664498 -14.9021727375 0
196 1 1 -127.756879369 -15.0493394037 0
197 1 1 -127.669284949 -15.1832319631 0
198 1 1 -127.574999442 -15.3125000692 0
199 1 1 -127.470557085 -15.4337097801 0
200 1 1 -127.353224668 -15.5424898519 0
201 1 1 -127.234191789 -15.6494065186 0
202 1 1 -127.116788444 -15.7581100356 0
203 1 1 -126.989865504 -15.855529578 0
204 1 1 -126.863267241 -15.9533706732 0
205 1 1 -126.730476343 -16.042626359 0
206 1 1 -126.599946299 -16.1351569354 0
207 1 1 -126.462865359 -16.2176724839 0
208 1 1 -126.317831933 -16.2852395279 0
209 1 1 -126.176936352 -16.3610579634 0
210 1 1 -126.046298989 -16.4534369631 0
211 1 1 -125.922511317 -16.5548105897 0
212 1 1 -125.817640165 -16.6756494969 0
213 1 1 -125.716219887 -16.7993989502 0
214 1 1 -125.598617083 -16.9078866475 0
215 1 1 -125.49743105 -17.0318277089 0
216 1 1 -125.396245687 -17.1557693174 0
217 1 1 -125.306646935 -17.2883289781 0
218 1 1 -125.23698666 -17.4323687162 0
219 1 1 -125.162029214 -17.5737242297 0
220 1 1 -125.084419196 -17.7136409374 0
221 1 1 -124.993404255 -17.845232277 0
222 1 1 -124.880039896 -17.9581416302 0
223 1 1 -124.766385417 -18.0707589446 0
224 1 1 -124.651058497 -18.1816629631 0
225 1 1 -124.561921741 -18.3145337231 0
226 1 1 -124.476841795 -18.4500379764 0
227 1 1 -124.399313603 -18.5900000412 0
228 1 1 -124.308844457 -18.7219672099 0
229 1 1 -124.229621305 -18.8609768934 0
230 1 1 -124.181508496 -19.0135716431 0
231 1 1 -124.133121244 -19.1660795899 0
232 1 1 -124.073855599 -19.3146985098 0
233 1 1 -124.021621524 -19.4659321086 0
234 1 1 -123.962063711 -19.6144341854 0
235 1 1 -123.897755706 -19.7609417981 0
236 1 1 -123.847694116 -19.9129083641 0
237 1 1 -123.807137503 -20.0676829134 0
238 1 1 -123.782258728 -20.2257368491 0
239 1 1 -123.761724255 -20.384413676 0
240 1 1 -123.730835618 -20.541403778 0
241 1 1 -123.695390052 -20.6974281731 0
242 1 1 -123.655336787 -20.8523337443 0
243 1 1 -123.64023321 -21.0116192802 0
244 1 1 -123.60231913 -21.1670622683 0
245 1 1 -123.572166297 -21.3241953542 0
246 1 1 -123.544674373 -21.4818157656 0
247 1 1 -123.528866397 -21.6410329377 0
248 1 1 -123.485298885 -21.7949870605 0
249 1 1 -123.431973455 -21.9458393012 0
250 1 1 -123.39649756 -22.101856803 0
251 1 1 -123.366936063 -22.2591022096 0
252 1 1 -123.335553542 -22.4159943297 0
253 1 1 -123.31962623 -22.5751996083 0
254 1 1 -123.318576282 -22.7351961633 0
255 1 1 -123.319273872 -22.8951946426 0
256 1 1 -123.325333559 -23.055079852 0
257 1 1 -123.30917872 -23.214262204 0
258 1 1 -123.276634236 -23.3709174196 0
259 1 1 -123.244372365 -23.5276310811 0
260 1 1 -123.214741369 -23.6848634062 0
261 1 1 -123.213915417 -23.8448612743 0
262 1 1 -123.213045565 -24.0048589098 0
263 1 1 -123.214839291 -24.1648488549 0
264 1 1 -123.193206494 -24.3233796787 0
265 1 1 -123.164898664 -24.4808556031 0
266 1 1 -123.118306471 -24.6339214959 0
267 1 1 -123.067917446 -24.7857798056 0
268 1 1 -123.032915445 -24.941904307 0
269 1 1 -122.985921246 -25.0948472546 0
270 1 1 -122.921287235 -25.2412113371 0
271 1 1 -122.850333364 -25.3846182693 0
272 1 1 -122.761624419 -25.5177750307 0
273 1 1 -122.674204714 -25.6517817288 0
274 1 1 -122.58964508 -25.7876112848 0
275 1 1 -122.491855377 -25.9142492491 0
276 1 1 -122.387288134 -26.0353512381 0
277 1 1 -122.262481292 -26.1354674316 0
278 1 1 -122.141577643 -26.2402639376 0
279 1 1 -122.010576713 -26.3321266411 0
280 1 1 -121.87840583 -26.4222979091 0
281 1 1 -121.738819949 -26.5005013729 0
282 1 1 -121.599070542 -26.5784122403 0
283 1 1 -121.459972874 -26.6574808113 0
284 1 1 -121.331785491 -26.7532304578 0
285 1 1 -121.197231614 -26.8398055929 0
286 1 1 -121.055951765 -26.9149055562 0
287 1 1 -120.92001186 -26.9992876757 0
288 1 1 -120.784451125 -27.0842775993 0
289 1 1 -120.648345466 -27.1683921028 0
290 1 1 -120.520280182 -27.2643049951 0
291 1 1 -120.405216128 -27.3754817172 0
292 1 1 -120.289408002 -27.4858831574 0
293 1 1 -120.179274509 -27.6019461299 0
294 1 1 -120.079969847 -27.7273996443 0
295 1 1 -119.994901401 -27.8629111176 0
296 1 1 -119.915849373 -28.0020181872 0
297 1 1 -119.852614624 -28.1489922208 0
298 1 1 -119.801652095 -28.300659029 0
299 1 1 -119.752954484 -28.4530681583 0
300 1 1 -119.706001301 -28.6060237026 0
301 1 1 -119.6397741 -28.7516738242 0
302 1 1 -119.561131149 -28.8910125704 0
303 1 1 -119.509795545 -29.0425535079 0
304 1 1 -119.450613515 -29.1912057441 0
305 1 1 -119.394846783 -29.3411726458 0
306 1 1 -119.327049449 -29.4860985633 0
307 1 1 -119.264316697 -29.6332875636 0
308 1 1 -119.206796553 -29.7825907216 0
309 1 1 -119.154439364 -29.9337817424 0
310 1 1 -119.122586693 -30.0905790872 0
311 1 1 -119.079963201 -30.2447972378 0
312 1 1 -119.025057256 -30.3950814259 0
313 1 1 -118.993128266 -30.5518632476 0
314 1 1 -118.956892579 -30.707706037 0
315 1 1 -118.925756808 -30.8646473117 0
316 1 1 -118.874000323 -31.0160450208 0
317 1 1 -118.798903021 -31.1573262838 0
318 1 1 -118.720961017 -31.297058327 0
319 1 1 -118.658396521 -31.4443189256 0
320 1 1 -118.601519103 -31.5938681124 0
321 1 1 -118.542481883 -31.7425779195 0
322 1 1 -118.450610047 -31.8735724447 0
323 1 1 -118.36993259 -32.0117431652 0
324 1 1 -118.311903692 -32.1608493253 0
325 1 1 -118.238073011 -32.3027966062 0
326 1 1 -118.175579583 -32.4500873779 0
327 1 1 -118.106126484 -32.5942271261 0
328 1 1 -118.012212658 -32.7237655121 0
329 1 1 -117.946171594 -32.8695001264 0
330 1 1 -117.887385579 -33.0183094153 0
331 1 1 -117.829674286 -33.1675387911 0
332 1 1 -117.753265226 -33.3081149472 0
333 1 1 -117.679582965 -33.4501393264 0
334 1 1 -117.614206635 -33.5961733483 0
335 1 1 -117.542633408 -33.7392721715 0
336 1 1 -117.476188144 -33.884822942 0
337 1 1 -117.389475514 -34.0192882533 0
338 1 1 -117.314629941 -34.160703034 0
339 1 1 -117.267606888 -34.3136371128 0
340 1 1 -117.23332385 -34.4699210636 0
341 1 1 -117.161249332 -34.6127680584 0
342 1 1 -117.097522295 -34.7595293091 0
343 1 1 -117.061254835 -34.9153647073 0
344 1 1 -117.034674384 -35.0731413837 0
345 1 1 -117.029605314 -35.2330610652 0
346 1 1 -117.021550566 -35.3928581899 0
347 1 1 -116.999539277 -35.551336905 0
348 1 1 -116.995932496 -35.7112962471 0
349 1 1 -116.985851018 -35.8709783181 0
350 1 1 -116.987529254 -36.0309695164 0
351 1 1 -117.008666992 -36.1895671079 0
352 1 1 -117.065735271 -36.339043566 0
353 1 1 -117.124072479 -36.4880293713 0
354 1 1 -117.195817058 -36.6310423612 0
355 1 1 -117.248566859 -36.7820968497 0
356 1 1 -117.293910274 -36.9355373096 0
357 1 1 -117.343112687 -37.0877842227 0
358 1 1 -117.395533085 -37.2389533395 0
359 1 1 -117.456892443 -37.3867201462 0
360 1 1 -117.516226166 -37.5353119 0
361 1 1 -117.570864327 -37.6856936524 0
362 1 1 -117.628245415 -37.8350503086 0
363 1 1 -117.700101107 -37.9780075034 0
364 1 1 -117.768412645 -38.1226917587 0
365 1 1 -117.813523498 -38.2762007517 0
366 1 1 -117.887807566 -38.4179112921 0
367 1 1 -117.957493542 -38.5619385976 0
368 1 1 -118.037426853 -38.7005411438 0
369 1 1 -118.123182533 -38.8356187632 0
370 1 1 -118.204959368 -38.9731416678 0
371 1 1 -118.292125631 -39.1073133584 0
372 1 1 -118.347445723 -39.2574455917 0
373 1 1 -118.429446728 -39.3948349479 0
374 1 1 -118.528385481 -39.5205772363 0
375 1 1 -118.63419195 -39.6405980311 0
376 1 1 -118.747791283 -39.7532709719 0
377 1 1 -118.882826369 -39.8390936115 0
378 1 1 -119.009320909 -39.9370687677 0
379 1 1 -119.127299683 -40.0451474838 0
380 1 1 -119.228679819 -40.1689298251 0
381 1 1 -119.336827509 -40.2868453766 0
382 1 1 -119.447189628 -40.4026909747 0
383 1 1 -119.569731564 -40.5055669875 0
384 1 1 -119.694745639 -40.6054242914 0
385 1 1 -119.834705032 -40.6829573049 0
386 1 1 -119.983928562 -40.740683712 0
387 1 1 -120.135408672 -40.7921985269 0
388 1 1 -120.281203604 -40.8581063257 0
389 1 1 -120.422941269 -40.9323386244 0
390 1 1 -120.565884049 -41.0042229887 0
391 1 1 -120.696987378 -41.0959394932 0
392 1 1 -120.822520319 -41.1951437297 0
393 1 1 -120.946585332 -41.2961777473 0
394 1 1 -121.054609711 -41.4142062757 0
395 1 1 -121.164990811 -41.5300337882 0
396 1 1 -121.273598349 -41.6475259272 0
397 1 1 -121.41330424 -41.7255147986 0
398 1 1 -121.540928216 -41.8220141292 0
399 1 1 -121.666312217 -41.9214065445 0
400 1 1 -121.804293765 -42.0024071141 0
401 1 1 -121.947471059 -42.0738232372 0
402 1 1 -122.091910677 -42.1426505326 0
403 1 1 -122.228407655 -42.2261285251 0
404 1 1 -122.367853755 -42.3045809644 0
405 1 1 -122.50552292 -42.386111333 0
406 1 1 -122.636717871 -42.4776967282 0
407 1 1 -122.758187255 -42.5818369644 0
408 1 1 -122.881234453 -42.6841081098 0
409 1 1 -122.994945612 -42.7966681925 0
410 1 1 -123.097896132 -42.9191475396 0
411 1 1 -123.19500092 -43.0463114498 0
412 1 1 -123.280494506 -43.1815551069 0
413 1 1 -123.406609454 -43.2800183992 0
414 1 1 -123.530734902 -43.3809781588 0
415 1 1 -123.642462909 -43.4955069871 0
416 1 1 -123.768691129 -43.5938250244 0
417 1 1 -123.904039451 -43.6791528144 0
418 1 1 -124.040793183 -43.7622095235 0
419 1 1 -124.182691794 -43.8361337013 0
420 1 1 -124.320835702 -43.9168570598 0
421 1 1 -124.469311673 -43.9764799255 0
422 1 1 -124.615388575 -44.0417603883 0
423 1 1 -124.765300461 -44.0976748453 0
424 1 1 -124.911374066 -44.1629626831 0
425 1 1 -125.059029001 -44.2245907635 0
426 1 1 -125.207659691 -44.2838268841 0
427 1 1 -125.361358005 -44.3282884199 0
428 1 1 -125.52059768 -44.3438680829 0
429 1 1 -125.67504659 -44.3856476732 0
430 1 1 -125.833990278 -44.4040026201 0
431 1 1 -125.993539909 -44.3920061533 0
432 1 1 -126.152538004 -44.3741286294 0
433 1 1 -126.312425128 -44.3681196688 0
434 1 1 -126.471280078 -44.3490119511 0
435 1 1 -126.630799311 -44.3366178337 0
436 1 1 -126.790308073 -44.3491459985 0
437 1 1 -126.949212166 -44.3304513646 0
438 1 1 -127.108786452 -44.3421152869 0
439 1 1 -127.2673461 -44.3635357927 0
440 1 1 -127.424173021 -44.3952425241 0
441 1 1 -127.58137443 -44.4250371062 0
442 1 1 -127.740948694 -44.4367013313 0
443 1 1 -127.900875637 -44.4415358868 0
444 1 1 -128.060834634 -44.4379138353 0
445 1 1 -128.220834344 -44.4382187768 0
446 1 1 -128.380707649 -44.4318527503 0
447 1 1 -128.538731015 -44.4067805384 0
448 1 1 -128.698643797 -44.4014982876 0
449 1 1 -128.858635413 -44.3998603761 0
450 1 1 -129.018602315 -44.403114648 0
451 1 1 -129.178212637 -44.414274627 0
452 1 1 -129.33821035 -44.4151299747 0
453 1 1 -129.495722027 -44.4432381888 0
454 1 1 -129.655556387 -44.4505167564 0
455 1 1 -129.815170913 -44.4616164348 0
456 1 1 -129.973877545 -44.4819192684 0
457 1 1 -130.132360035 -44.5039033638 0
458 1 1 -130.289697677 -44.5329699459 0
459 1 1 -130.444758558 -44.5724176744 0
460 1 1 -130.599277092 -44.6139390256 0
461 1 1 -130.754832805 -44.6513879292 0
462 1 1 -130.912449544 -44.6789008974 0
463 1 1 -131.06990623 -44.70731554 0
464 1 1 -131.229711448 -44.7152081034 0
465 1 1 -131.387949506 -44.738887566 0
466 1 1 -131.545962065 -44.7640277938 0
467 1 1 -131.705653647 -44.7540980978 0
468 1 1 -131.865653348 -44.7537888083 0
469 1 1 -132.023968667 -44.7306315275 0
470 1 1 -132.183641127 -44.7408640985 0
471 1 1 -132.341785094 -44.7165641874 0
472 1 1 -132.495453363 -44.6719989181 0
473 1 1 -132.650979118 -44.6344257968 0
474 1 1 -132.79843273 -44.5723175659 0
475 1 1 -132.938328895 -44.4946705255 0
476 1 1 -133.08609453 -44.4333083455 0
477 1 1 -133.233253969 -44.370506278 0
478 1 1 -133.376753633 -44.2997401392 0
479 1 1 -133.529293101 -44.2514523503 0
480 1 1 -133.679871342 -44.1973580504 0
481 1 1 -133.828143899 -44.1372311096 0
482 1 1 -133.971985178 -44.0671619553 0
483 1 1 -134.113968981 -43.9934015347 0
484 1 1 -134.252516107 -43.9133722024 0
485 1 1 -134.398445398 -43.8477624332 0
486 1 1 -134.532847716 -43.7609521979 0
487 1 1 -134.663918271 -43.6691888623 0
488 1 1 -134.793208147 -43.5749332098 0
489 1 1 -134.932118792 -43.4955365311 0
490 1 1 -135.067868658 -43.4108490237 0
491 1 1 -135.197176694 -43.3166182872 0
492 1 1 -135.329920719 -43.2272929054 0
493 1 1 -135.469107271 -43.1483809052 0
494 1 1 -135.605772279 -43.0651782865 0
495 1 1 -135.732925794 -42.9680598872 0
496 1 1 -135.846633213 -42.8554960255 0
497 1 1 -135.943059851 -42.727817118 0
498 1 1 -136.029144651 -42.5929490078 0
499 1 1 -136.095630733 -42.4474168773 0
500 1 1 -136.154513205 -42.2986457294 0
501 1 1 -136.21166308 -42.149200449 0
502 1 1 -136.287020894 -42.0080579683 0
503 1 1 -136.376246454 -41.8752468266 0
504 1 1 -136.461009886 -41.739544356 0
505 1 1 -136.52190659 -41.5915862825 0
506 1 1 -136.583929033 -41.4440965657 0
507 1 1 -136.633870836 -41.2920905912 0
508 1 1 -136.690959793 -41.1426220293 0
509 1 1 -136.750353805 -40.9940543634 0
510 1 1 -136.807692773 -40.8446815322 0
511 1 1 -136.872292539 -40.6983023318 0
512 1 1 -136.939746785 -40.5532164102 0
513 1 1 -136.993316917 -40.4024508937 0
514 1 1 -137.051909048 -40.2535651584 0
515 1 1 -137.10382453 -40.1022218969 0
516 1 1 -137.135776788 -39.9454448158 0
517 1 1 -137.178640913 -39.7912933747 0
518 1 1 -137.22447946 -39.6380001015 0
519 1 1 -137.271883751 -39.4851837635 0
520 1 1 -137.345507172 -39.3431288726 0
521 1 1 -137.401858958 -39.1933808303 0
522 1 1 -137.453874191 -39.0420718236 0
523 1 1 -137.511710309 -38.8928907809 0
524 1 1 -137.561851559 -38.7409504801 0
525 1 1 -137.600715923 -38.5857423579 0
526 1 1 -137.617996241 -38.4266782494 0
527 1 1 -137.625160377 -38.26683872 0
528 1 1 -137.630854233 -38.1069400646 0
529 1 1 -137.622737685 -37.947146067 0
530 1 1 -137.632130054 -37.7874219817 0
531 1 1 -137.640501505 -37.6276411356 0
532 1 1 -137.661497812 -37.4690247585 0
533 1 1 -137.712604379 -37.3174064259 0
534 1 1 -137.757399427 -37.1638049815 0
535 1 1 -137.810974832 -37.0130413389 0
536 1 1 -137.861365161 -36.8611834619 0
537 1 1 -137.908357906 -36.7082400677 0
538 1 1 -137.938285148 -36.5510638602 0
539 1 1 -137.964046429 -36.3931513642 0
540 1 1 -137.999108435 -36.2370403276 0
541 1 1 -138.056154934 -36.0875555556 0
542 1 1 -138.117860167 -35.9399328468 0
543 1 1 -138.207165852 -35.8071755696 0
544 1 1 -138.302838593 -35.6789307778 0
545 1 1 -138.384251825 -35.5411923095 0
546 1 1 -138.484709963 -35.4166605368 0
547 1 1 -138.587939666 -35.2944164023 0
548 1 1 -138.668231652 -35.1560213265 0
549 1 1 -138.735409129 -35.0108070483 0
550 1 1 -138.802851341 -34.865715532 0
551 1 1 -138.886421974 -34.7292752548 0
552 1 1 -138.978468798 -34.5984036299 0
553 1 1 -139.072000888 -34.4685893468 0
554 1 1 -139.166442975 -34.3394355928 0
555 1 1 -139.268250309 -34.2160043701 0
556 1 1 -139.377918251 -34.0995013977 0
557 1 1 -139.491299242 -33.9866087458 0
558 1 1 -139.595933469 -33.8655646278 0
559 1 1 -139.709365012 -33.7527227688 0
560 1 1 -139.842916849 -33.664609734 0
561 1 1 -139.978125858 -33.5790613631 0
562 1 1 -140.116791268 -33.4992371561 0
563 1 1 -140.26381573 -33.4361197432 0
564 1 1 -140.411162592 -33.3737586812 0
565 1 1 -140.557413185 -33.3088682804 0
566 1 1 -140.692684632 -33.2234186725 0
567 1 1 -140.828702576 -33.1391624029 0
568 1 1 -140.958177182 -33.0451606663 0
569 1 1 -141.096874567 -32.9653920295 0
570 1 1 -141.227858488 -32.8735050749 0
571 1 1 -141.37222419 -32.804522873 0
572 1 1 -141.5009529 -32.7095022478 0
573 1 1 -141.635927493 -32.623584501 0
574 1 1 -141.764991068 -32.5290192139 0
575 1 1 -141.890285228 -32.4295135685 0
576 1 1 -142.031259816 -32.3538421366 0
577 1 1 -142.165764098 -32.2671899692 0
578 1 1 -142.29280227 -32.1699207405 0
579 1 1 -142.412420749 -32.0636596494 0
580 1 1 -142.524139377 -31.9491216731 0
581 1 1 -142.624548794 -31.8245506125 0
582 1 1 -142.727148391 -31.7017771522 0
583 1 1 -142.830285287 -31.5794547065 0
584 1 1 -142.926294138 -31.451461345 0
585 1 1 -143.029164147 -31.3289143692 0
586 1 1 -143.14405356 -31.2175571838 0
587 1 1 -143.271744014 -31.1211458368 0
588 1 1 -143.401788829 -31.0279345383 0
589 1 1 -143.520100852 -30.920220727 0
590 1 1 -143.653360467 -30.8316663651 0
591 1 1 -143.781897117 -30.7363860963 0
592 1 1 -143.899816998 -30.6282431271 0
593 1 1 -144.030612917 -30.5360887595 0
594 1 1 -144.166839095 -30.4521695811 0
595 1 1 -144.304528671 -30.3706736871 0
596 1 1 -144.441968572 -30.2887574277 0
597 1 1 -144.586231625 -30.2195608124 0
598 1 1 -144.737068582 -30.1661921674 0
599 1 1 -144.88794994 -30.112949178 0
600 1 1 -145.041159929 -30.0668330283 0
601 1 1 -145.190484793 -30.0093692569 0
602 1 1 -145.337888456 -29.9471425746 0
603 1 1 -145.486761221 -29.8885174949 0
604 1 1 -145.638218752 -29.8369363323 0
605 1 1 -145.786738915 -29.7774236361 0
606 1 1 -145.938957548 -29.7281338016 0
607 1 1 -146.091294943 -29.6792122511 0
608 1 1 -146.235134189 -29.6091389226 0
609 1 1 -146.378786418 -29.5386829989 0
610 1 1 -146.525107403 -29.473951482 0
611 1 1 -146.67222474 -29.4110508536 0
612 1 1 -146.821052438 -29.3523114597 0
613 1 1 -146.968681333 -29.2906210285 0
614 1 1 -147.123268432 -29.2493556818 0
615 1 1 -147.273271349 -29.1936858963 0
616 1 1 -147.421386476 -29.1331721854 0
617 1 1 -147.574163534 -29.0856414545 0
618 1 1 -147.727318384 -29.0393425121 0
619 1 1 -147.883436445 -29.0043117961 0
620 1 1 -148.040241565 -28.9724974228 0
621 1 1 -148.198456006 -28.9486606729 0
622 1 1 -148.357036645 -28.9273961325 0
623 1 1 -148.50787577 -28.874033612 0
624 1 1 -148.660983051 -28.8275776066 0
625 1 1 -148.811600538 -28.7735926766 0
626 1 1 -148.965096981 -28.7284391415 0
627 1 1 -149.121351765 -28.6940234105 0
628 1 1 -149.276423498 -28.6546183622 0
629 1 1 -149.432321718 -28.6186219053 0
630 1 1 -149.590108182 -28.5920996204 0
631 1 1 -149.746614612 -28.5588469874 0
632 1 1 -149.906391464 -28.5503996537 0
633 1 1 -150.06627687 -28.5443451581 0
634 1 1 -150.226088487 -28.5365832455 0
635 1 1 -150.384207396 -28.5121208182 0
636 1 1 -150.54053168 -28.4780221627 0
637 1 1 -150.693297381 -28.4304549406 0
638 1 1 -150.847294526 -28.3870397442 0
639 1 1 -151.002022212 -28.3463047063 0
640 1 1 -151.156807489 -28.305789056 0
641 1 1 -151.311355544 -28.2643777213 0
642 1 1 -151.466542293 -28.2254281015 0
643 1 1 -151.625985164 -28.2120875179 0
644 1 1 -151.785672238 -28.2020856123 0
645 1 1 -151.945639221 -28.1988352906 0
646 1 1 -152.103662374 -28.1737617404 0
647 1 1 -152.253828284 -28.1185331283 0
648 1 1 -152.403996907 -28.0633118959 0
649 1 1 -152.550059911 -27.9980003415 0
650 1 1 -152.699631143 -27.9411809215 0
651 1 1 -152.834582874 -27.8552272694 0
652 1 1 -152.980879725 -27.7904412263 0
653 1 1 -153.128545368 -27.7288388092 0
654 1 1 -153.281062486 -27.6804804712 0
655 1 1 -153.425875764 -27.612442875 0
656 1 1 -153.569344575 -27.5416142077 0
657 1 1 -153.715870579 -27.4773481181 0
658 1 1 -153.866050439 -27.4221574531 0
659 1 1 -154.015449039 -27.364885659 0
660 1 1 -154.170031073 -27.3236013445 0
661 1 1 -154.329323471 -27.3085703079 0
662 1 1 -154.487532751 -27.2846993255 0
663 1 1 -154.646942939 -27.2984249168 0
664 1 1 -154.806941298 -27.2991495998 0
665 1 1 -154.965672445 -27.3192598735 0
666 1 1 -155.125358788 -27.3292734482 0
667 1 1 -155.283975074 -27.3502704448 0
668 1 1 -155.442299838 -27.3733630638 0
669 1 1 -155.602266566 -27.3766258774 0
670 1 1 -155.762084793 -27.3842504583 0
671 1 1 -155.920804674 -27.3640514593 0
672 1 1 -156.080690831 -27.3700860777 0
673 1 1 -156.240245889 -27.3820101465 0
674 1 1 -156.399238706 -27.3999345534 0
675 1 1 -156.556174606 -27.4310974031 0
676 1 1 -156.711193413 -27.4707101459 0
677 1 1 -156.867366367 -27.5054953211 0
678 1 1 -157.026550816 -27.4893611558 0
679 1 1 -157.179217123 -27.4414758898 0
680 1 1 -157.322143668 -27.3695592512 0
681 1 1 -157.464389666 -27.296305746 0
682 1 1 -157.59224353 -27.2001112069 0
683 1 1 -157.714255825 -27.0966075844 0
684 1 1 -157.822246576 -26.9785482873 0
685 1 1 -157.919062473 -26.8511642926 0
686 1 1 -158.014013605 -26.7223843155 0
687 1 1 -158.098573351 -26.5865548291 0
688 1 1 -158.190576526 -26.4556525152 0
689 1 1 -158.301942391 -26.340771515 0
690 1 1 -158.431154203 -26.2464088765 0
691 1 1 -158.560564477 -26.1523185957 0
692 1 1 -158.691931585 -26.0609803066 0
693 1 1 -158.816887499 -25.9610502328 0
694 1 1 -158.956408041 -25.8827302589 0
695 1 1 -159.094964943 -25.8027178541 0
696 1 1 -159.227563765 -25.7131770679 0
697 1 1 -159.35365786 -25.6146870721 0
698 1 1 -159.478951334 -25.515180563 0
699 1 1 -159.607111655 -25.4193946978 0
700 1 1 -159.713006459 -25.2994518341 0
701 1 1 -159.818000549 -25.1787197299 0
702 1 1 -159.923340767 -25.0582895071 0
703 1 1 -160.009018114 -24.923162189 0
704 1 1 -160.073151983 -24.7765782644 0
705 1 1 -160.150042925 -24.6362651037 0
706 1 1 -160.211441172 -24.4885144514 0
707 1 1 -160.239266589 -24.330952571 0
708 1 1 -160.252275925 -24.1714823318 0
709 1 1 -160.253302195 -24.0114856232 0
710 1 1 -160.261280138 -23.8516846457 0
711 1 1 -160.259367787 -23.6916960745 0
712 1 1 -160.252120942 -23.5318602736 0
713 1 1 -160.251860462 -23.3718604856 0
714 1 1 -160.253613598 -23.2118700906 0
715 1 1 -160.264368027 -23.0522319301 0
716 1 1 -160.287981184 -22.8939839639 0
717 1 1 -160.307926316 -22.7352319822 0
718 1 1 -160.326291776 -22.5762895086 0
719 1 1 -160.325648051 -22.4162908036 0
720 1 1 -160.331028791 -22.2563813053 0
721 1 1 -160.35320755 -22.0979259404 0
722 1 1 -160.38533496 -21.9411846584 0
723 1 1 -160.426290949 -21.7865153112 0
724 1 1 -160.473301532 -21.6335773985 0
725 1 1 -160.516465264 -21.4795095816 0
726 1 1 -160.515466792 -21.3195126971 0
727 1 1 -160.508498663 -21.1596645029 0
728 1 1 -160.510332099 -20.9996750079 0
729 1 1 -160.526324117 -20.840476216 0
730 1 1 -160.567345164 -20.6858241105 0
731 1 1 -160.625323873 -20.5366984278 0
732 1 1 -160.689301452 -20.390046222 0
733 1 1 -160.752979049 -20.243263513 0
734 1 1 -160.806211284 -20.0923783608 0
735 1 1 -160.888726494 -19.9552972165 0
736 1 1 -160.973498949 -19.819600382 0
737 1 1 -161.063436887 -19.687270615 0
738 1 1 -161.156756886 -19.5573037813 0
739 1 1 -161.255344642 -19.4312861068 0
740 1 1 -161.346949159 -19.3001045056 0
741 1 1 -161.442703883 -19.1719209154 0
742 1 1 -161.526966868 -19.0359071314 0
743 1 1 -161.62354944 -18.9083461395 0
744 1 1 -161.730122856 -18.7890058405 0
745 1 1 -161.836922326 -18.6698677974 0
746 1 1 -161.938467844 -18.546221092 0
747 1 1 -162.046732331 -18.4284127693 0
748 1 1 -162.14959945 -18.3058633681 0
749 1 1 -162.263371988 -18.193365325 0
750 1 1 -162.360083054 -18.0659017239 0
751 1 1 -162.445863617 -17.9308399042 0