#Actin filament

200 atoms
199 bonds
198 angles

1 atom types
3 bond types
1 angle types

-500 500 xlo xhi
-500 500 ylo yhi
-0.05 0.05 zlo zhi

Masses

1 1


Atoms

1 1 1 -150 0 0
2 1 1 -149.000002774 0.00235560679875 0
3 1 1 -148.045813505 -0.296848067335 0
4 1 1 -147.078514541 -0.55048701095 0
5 1 1 -146.079498994 -0.594848454862 0
6 1 1 -145.079876426 -0.622320629072 0
7 1 1 -144.088164632 -0.49383826753 0
8 1 1 -143.122682197 -0.233370095787 0
9 1 1 -142.199175693 0.150212668566 0
10 1 1 -141.21795742 0.343113420816 0
11 1 1 -140.218160614 0.363271495684 0
12 1 1 -139.223424345 0.465739807292 0
13 1 1 -138.23083621 0.587266732744 0
14 1 1 -137.243204153 0.744056144391 0
15 1 1 -136.292435535 1.05395779894 0
16 1 1 -135.303620212 1.20310288504 0
17 1 1 -134.304779589 1.25124237435 0
18 1 1 -133.307057682 1.18378130514 0
19 1 1 -132.329190016 0.974556958689 0
20 1 1 -131.374947626 0.675522743615 0
21 1 1 -130.415903284 0.392266763962 0
22 1 1 -129.452915407 0.122722056495 0
23 1 1 -128.472974222 -0.076564855315 0
24 1 1 -127.482786553 -0.216308835242 0
25 1 1 -126.514298017 -0.465366973723 0
26 1 1 -125.534238824 -0.664072732573 0
27 1 1 -124.544050485 -0.803811962998 0
28 1 1 -123.550941459 -0.686617840111 0
29 1 1 -122.566417228 -0.511369335256 0
30 1 1 -121.614878599 -0.203840087632 0
31 1 1 -120.680354754 0.152060435358 0
32 1 1 -119.794824218 0.61664161342 0
33 1 1 -118.975393914 1.18982044829 0
34 1 1 -118.236563164 1.86371147978 0
35 1 1 -117.517453995 2.5586085969 0
36 1 1 -116.77236167 3.22556993505 0
37 1 1 -116.082144504 3.94917221806 0
38 1 1 -115.315130567 4.59080265746 0
39 1 1 -114.474574933 5.13252788901 0
40 1 1 -113.526977017 5.45199336415 0
41 1 1 -112.616241773 5.8649840591 0
42 1 1 -111.767462091 6.39373073864 0
43 1 1 -110.911225594 6.91031476991 0
44 1 1 -110.077962668 7.46319169708 0
45 1 1 -109.266184676 8.04715787109 0
46 1 1 -108.516409831 8.70885091222 0
47 1 1 -107.841347957 9.44661203027 0
48 1 1 -107.101253338 10.119114784 0
49 1 1 -106.337632199 10.7647793692 0
50 1 1 -105.684896906 11.5223654284 0
51 1 1 -105.065476763 12.3074250994 0
52 1 1 -104.3582338 13.0143956721 0
53 1 1 -103.648472098 13.7188375271 0
54 1 1 -102.960576028 14.4446467281 0
55 1 1 -102.228228813 15.1255781175 0
56 1 1 -101.628716126 15.9259433706 0
57 1 1 -100.886876151 16.5965203243 0
58 1 1 -100.128033778 17.2477946548 0
59 1 1 -99.5256106073 18.0459715293 0
60 1 1 -98.8775819399 18.8075874734 0
61 1 1 -98.0842038994 19.4163167111 0
62 1 1 -97.3480987852 20.0931839513 0
63 1 1 -96.6343240011 20.793559249 0
64 1 1 -95.9503849383 21.5230983901 0
65 1 1 -95.1606682089 22.1365700579 0
66 1 1 -94.3276048985 22.6897477156 0
67 1 1 -93.5798599453 23.3537337733 0
68 1 1 -92.8608133278 24.0486956154 0
69 1 1 -92.210319034 24.8082067566 0
70 1 1 -91.7037489694 25.670405556 0
71 1 1 -91.3536044185 26.6071012342 0
72 1 1 -90.9890022992 27.5382646434 0
73 1 1 -90.5988866116 28.4590304932 0
74 1 1 -90.1994795026 29.3758041628 0
75 1 1 -89.7850800504 30.2858992645 0
76 1 1 -89.2853538041 31.1520826624 0
77 1 1 -88.8053586233 32.0293537872 0
78 1 1 -88.4388540799 32.9597700487 0
79 1 1 -88.1415453858 33.9145514584 0
80 1 1 -87.90894516 34.8871238902 0
81 1 1 -87.6795182526 35.8604497832 0
82 1 1 -87.1239349162 36.69191064 0
83 1 1 -86.656419598 37.57589561 0
84 1 1 -86.0309069498 38.3561096364 0
85 1 1 -85.4686230435 39.1830538961 0
86 1 1 -84.9941611816 40.063329956 0
87 1 1 -84.4321417976 40.8904540169 0
88 1 1 -84.1152159884 41.8389043484 0
89 1 1 -83.7327265809 42.7628642248 0
90 1 1 -83.3020479862 43.6653695977 0
91 1 1 -82.9221528048 44.5903991384 0
92 1 1 -82.6297450019 45.5466928573 0
93 1 1 -82.3058347007 46.4927806528 0
94 1 1 -81.9496019898 47.4271779214 0
95 1 1 -81.6683435675 48.3868099863 0
96 1 1 -81.3709582386 49.3415675294 0
97 1 1 -81.1338914313 50.3130608793 0
98 1 1 -80.6864863969 51.2073923253 0
99 1 1 -80.243264517 52.1038042647 0
100 1 1 -79.7866024784 52.9934445192 0
101 1 1 -79.3710454166 53.9030116297 0
102 1 1 -78.9543821162 54.8120725155 0
103 1 1 -78.4264744637 55.6613742937 0
104 1 1 -77.9824594344 56.5573936315 0
105 1 1 -77.5042796663 57.4356556137 0
106 1 1 -77.0846183377 58.3433363777 0
107 1 1 -76.6225563459 59.2301840059 0
108 1 1 -76.2419338854 60.1549145302 0
109 1 1 -75.8553358546 61.0771628496 0
110 1 1 -75.4984486605 62.0113103383 0
111 1 1 -75.1110927273 62.9332405857 0
112 1 1 -74.8221926577 63.8905998441 0
113 1 1 -74.579093874 64.8606013809 0
114 1 1 -74.2994100239 65.8206935348 0
115 1 1 -73.9066442337 66.7403320693 0
116 1 1 -73.5605466376 67.6785305845 0
117 1 1 -73.1263949661 68.5793703739 0
118 1 1 -72.7648319745 69.5117180575 0
119 1 1 -72.3016502619 70.3979813937 0
120 1 1 -71.7457027008 71.2291987595 0
121 1 1 -71.2872001549 72.1178918536 0
122 1 1 -70.6953802643 72.9239620845 0
123 1 1 -70.0373946365 73.676992571 0
124 1 1 -69.3902896919 74.4393935093 0
125 1 1 -68.6876459186 75.1509353055 0
126 1 1 -67.9914448526 75.8687821385 0
127 1 1 -67.2562457619 76.5466333737 0
128 1 1 -66.6202030701 77.3182872432 0
129 1 1 -66.1363879186 78.1934574547 0
130 1 1 -65.7584914339 79.1193053077 0
131 1 1 -65.4678258872 80.0761300252 0
132 1 1 -65.2168112718 81.044113322 0
133 1 1 -64.9430987875 82.0059248814 0
134 1 1 -64.5939488601 82.9429917564 0
135 1 1 -64.3344068123 83.9087235646 0
136 1 1 -64.0835186537 84.876739645 0
137 1 1 -63.9636003883 85.8695234128 0
138 1 1 -63.9876731817 86.8692336211 0
139 1 1 -64.1727612775 87.8519555537 0
140 1 1 -64.3463947108 88.8367659065 0
141 1 1 -64.5840144883 89.8081241521 0
142 1 1 -64.7059592798 90.8006610369 0
143 1 1 -64.8922324634 91.7831590273 0
144 1 1 -65.2288495064 92.724800661 0
145 1 1 -65.4838781349 93.6917341637 0
146 1 1 -65.7456219174 94.6568715593 0
147 1 1 -65.9139640581 95.6426001851 0
148 1 1 -66.1621410322 96.6113148951 0
149 1 1 -66.4230700205 97.5766728925 0
150 1 1 -66.4637742286 98.5758441328 0
151 1 1 -66.6576295704 99.5568742579 0
152 1 1 -66.8340406337 100.541190842 0
153 1 1 -67.1304518131 101.496251265 0
154 1 1 -67.4977236601 102.426364909 0
155 1 1 -67.8549676643 103.360376002 0
156 1 1 -68.2072869094 104.296255882 0
157 1 1 -68.5188718888 105.246474173 0
158 1 1 -68.9778691429 106.134911858 0
159 1 1 -69.3788992152 107.050976747 0
160 1 1 -69.8454518559 107.93547018 0
161 1 1 -70.2911715496 108.830642764 0
162 1 1 -70.8246245655 109.676472463 0
163 1 1 -71.3453612257 110.530189823 0
164 1 1 -71.9546230867 111.323158918 0
165 1 1 -72.4889702295 112.168424042 0
166 1 1 -72.9585229988 113.051328452 0
167 1 1 -73.416894996 113.940088888 0
168 1 1 -73.9291922344 114.798897097 0
169 1 1 -74.4237291891 115.6680537 0
170 1 1 -74.8787801596 116.558519092 0
171 1 1 -75.3260540631 117.452916126 0
172 1 1 -75.8038190447 118.331403816 0
173 1 1 -76.2626213173 119.219942209 0
174 1 1 -76.7010292907 120.118718293 0
175 1 1 -77.1821414692 120.995377332 0
176 1 1 -77.6693515288 121.868662141 0
177 1 1 -78.1911386595 122.721737865 0
178 1 1 -78.546156324 123.656597458 0
179 1 1 -78.8683417308 124.603274046 0
180 1 1 -79.1753924002 125.554967214 0
181 1 1 -79.4762263375 126.508643754 0
182 1 1 -79.7583948535 127.468008611 0
183 1 1 -80.1255482241 128.398169029 0
184 1 1 -80.540433776 129.308042634 0
185 1 1 -81.050488476 130.168184601 0
186 1 1 -81.6380077498 130.977394774 0
187 1 1 -82.2922092438 131.733715079 0
188 1 1 -83.0008637894 132.439270701 0
189 1 1 -83.6071942654 133.234483474 0
190 1 1 -84.1286594481 134.087756035 0
191 1 1 -84.8154487869 134.814612557 0
192 1 1 -85.5082665755 135.535725247 0
193 1 1 -86.2499833093 136.206438514 0
194 1 1 -87.0331601888 136.828237497 0
195 1 1 -87.8416358734 137.416767078 0
196 1 1 -88.6179195558 138.047150806 0
197 1 1 -89.4622985787 138.582897076 0
198 1 1 -90.2677641516 139.175539642 0
199 1 1 -91.0287305101 139.824330981 0
200 1 1 -91.7808444099 140.483364122 0


Bonds

0 1 1 2
1 2 2 3
2 3 3 4
3 1 4 5
4 2 5 6
5 3 6 7
6 1 7 8
7 2 8 9
8 3 9 10
9 1 10 11
10 2 11 12
11 3 12 13
12 1 13 14
13 2 14 15
14 3 15 16
15 1 16 17
16 2 17 18
17 3 18 19
18 1 19 20
19 2 20 21
20 3 21 22
21 1 22 23
22 2 23 24
23 3 24 25
24 1 25 26
25 2 26 27
26 3 27 28
27 1 28 29
28 2 29 30
29 3 30 31
30 1 31 32
31 2 32 33
32 3 33 34
33 1 34 35
34 2 35 36
35 3 36 37
36 1 37 38
37 2 38 39
38 3 39 40
39 1 40 41
40 2 41 42
41 3 42 43
42 1 43 44
43 2 44 45
44 3 45 46
45 1 46 47
46 2 47 48
47 3 48 49
48 1 49 50
49 2 50 51
50 3 51 52
51 1 52 53
52 2 53 54
53 3 54 55
54 1 55 56
55 2 56 57
56 3 57 58
57 1 58 59
58 2 59 60
59 3 60 61
60 1 61 62
61 2 62 63
62 3 63 64
63 1 64 65
64 2 65 66
65 3 66 67
66 1 67 68
67 2 68 69
68 3 69 70
69 1 70 71
70 2 71 72
71 3 72 73
72 1 73 74
73 2 74 75
74 3 75 76
75 1 76 77
76 2 77 78
77 3 78 79
78 1 79 80
79 2 80 81
80 3 81 82
81 1 82 83
82 2 83 84
83 3 84 85
84 1 85 86
85 2 86 87
86 3 87 88
87 1 88 89
88 2 89 90
89 3 90 91
90 1 91 92
91 2 92 93
92 3 93 94
93 1 94 95
94 2 95 96
95 3 96 97
96 1 97 98
97 2 98 99
98 3 99 100
99 1 100 101
100 2 101 102
101 3 102 103
102 1 103 104
103 2 104 105
104 3 105 106
105 1 106 107
106 2 107 108
107 3 108 109
108 1 109 110
109 2 110 111
110 3 111 112
111 1 112 113
112 2 113 114
113 3 114 115
114 1 115 116
115 2 116 117
116 3 117 118
117 1 118 119
118 2 119 120
119 3 120 121
120 1 121 122
121 2 122 123
122 3 123 124
123 1 124 125
124 2 125 126
125 3 126 127
126 1 127 128
127 2 128 129
128 3 129 130
129 1 130 131
130 2 131 132
131 3 132 133
132 1 133 134
133 2 134 135
134 3 135 136
135 1 136 137
136 2 137 138
137 3 138 139
138 1 139 140
139 2 140 141
140 3 141 142
141 1 142 143
142 2 143 144
143 3 144 145
144 1 145 146
145 2 146 147
146 3 147 148
147 1 148 149
148 2 149 150
149 3 150 151
150 1 151 152
151 2 152 153
152 3 153 154
153 1 154 155
154 2 155 156
155 3 156 157
156 1 157 158
157 2 158 159
158 3 159 160
159 1 160 161
160 2 161 162
161 3 162 163
162 1 163 164
163 2 164 165
164 3 165 166
165 1 166 167
166 2 167 168
167 3 168 169
168 1 169 170
169 2 170 171
170 3 171 172
171 1 172 173
172 2 173 174
173 3 174 175
174 1 175 176
175 2 176 177
176 3 177 178
177 1 178 179
178 2 179 180
179 3 180 181
180 1 181 182
181 2 182 183
182 3 183 184
183 1 184 185
184 2 185 186
185 3 186 187
186 1 187 188
187 2 188 189
188 3 189 190
189 1 190 191
190 2 191 192
191 3 192 193
192 1 193 194
193 2 194 195
194 3 195 196
195 1 196 197
196 2 197 198
197 3 198 199
198 1 199 200


Angles

1 1 1 2 3
2 1 2 3 4
3 1 3 4 5
4 1 4 5 6
5 1 5 6 7
6 1 6 7 8
7 1 7 8 9
8 1 8 9 10
9 1 9 10 11
10 1 10 11 12
11 1 11 12 13
12 1 12 13 14
13 1 13 14 15
14 1 14 15 16
15 1 15 16 17
16 1 16 17 18
17 1 17 18 19
18 1 18 19 20
19 1 19 20 21
20 1 20 21 22
21 1 21 22 23
22 1 22 23 24
23 1 23 24 25
24 1 24 25 26
25 1 25 26 27
26 1 26 27 28
27 1 27 28 29
28 1 28 29 30
29 1 29 30 31
30 1 30 31 32
31 1 31 32 33
32 1 32 33 34
33 1 33 34 35
34 1 34 35 36
35 1 35 36 37
36 1 36 37 38
37 1 37 38 39
38 1 38 39 40
39 1 39 40 41
40 1 40 41 42
41 1 41 42 43
42 1 42 43 44
43 1 43 44 45
44 1 44 45 46
45 1 45 46 47
46 1 46 47 48
47 1 47 48 49
48 1 48 49 50
49 1 49 50 51
50 1 50 51 52
51 1 51 52 53
52 1 52 53 54
53 1 53 54 55
54 1 54 55 56
55 1 55 56 57
56 1 56 57 58
57 1 57 58 59
58 1 58 59 60
59 1 59 60 61
60 1 60 61 62
61 1 61 62 63
62 1 62 63 64
63 1 63 64 65
64 1 64 65 66
65 1 65 66 67
66 1 66 67 68
67 1 67 68 69
68 1 68 69 70
69 1 69 70 71
70 1 70 71 72
71 1 71 72 73
72 1 72 73 74
73 1 73 74 75
74 1 74 75 76
75 1 75 76 77
76 1 76 77 78
77 1 77 78 79
78 1 78 79 80
79 1 79 80 81
80 1 80 81 82
81 1 81 82 83
82 1 82 83 84
83 1 83 84 85
84 1 84 85 86
85 1 85 86 87
86 1 86 87 88
87 1 87 88 89
88 1 88 89 90
89 1 89 90 91
90 1 90 91 92
91 1 91 92 93
92 1 92 93 94
93 1 93 94 95
94 1 94 95 96
95 1 95 96 97
96 1 96 97 98
97 1 97 98 99
98 1 98 99 100
99 1 99 100 101
100 1 100 101 102
101 1 101 102 103
102 1 102 103 104
103 1 103 104 105
104 1 104 105 106
105 1 105 106 107
106 1 106 107 108
107 1 107 108 109
108 1 108 109 110
109 1 109 110 111
110 1 110 111 112
111 1 111 112 113
112 1 112 113 114
113 1 113 114 115
114 1 114 115 116
115 1 115 116 117
116 1 116 117 118
117 1 117 118 119
118 1 118 119 120
119 1 119 120 121
120 1 120 121 122
121 1 121 122 123
122 1 122 123 124
123 1 123 124 125
124 1 124 125 126
125 1 125 126 127
126 1 126 127 128
127 1 127 128 129
128 1 128 129 130
129 1 129 130 131
130 1 130 131 132
131 1 131 132 133
132 1 132 133 134
133 1 133 134 135
134 1 134 135 136
135 1 135 136 137
136 1 136 137 138
137 1 137 138 139
138 1 138 139 140
139 1 139 140 141
140 1 140 141 142
141 1 141 142 143
142 1 142 143 144
143 1 143 144 145
144 1 144 145 146
145 1 145 146 147
146 1 146 147 148
147 1 147 148 149
148 1 148 149 150
149 1 149 150 151
150 1 150 151 152
151 1 151 152 153
152 1 152 153 154
153 1 153 154 155
154 1 154 155 156
155 1 155 156 157
156 1 156 157 158
157 1 157 158 159
158 1 158 159 160
159 1 159 160 161
160 1 160 161 162
161 1 161 162 163
162 1 162 163 164
163 1 163 164 165
164 1 164 165 166
165 1 165 166 167
166 1 166 167 168
167 1 167 168 169
168 1 168 169 170
169 1 169 170 171
170 1 170 171 172
171 1 171 172 173
172 1 172 173 174
173 1 173 174 175
174 1 174 175 176
175 1 175 176 177
176 1 176 177 178
177 1 177 178 179
178 1 178 179 180
179 1 179 180 181
180 1 180 181 182
181 1 181 182 183
182 1 182 183 184
183 1 183 184 185
184 1 184 185 186
185 1 185 186 187
186 1 186 187 188
187 1 187 188 189
188 1 188 189 190
189 1 189 190 191
190 1 190 191 192
191 1 191 192 193
192 1 192 193 194
193 1 193 194 195
194 1 194 195 196
195 1 195 196 197
196 1 196 197 198
197 1 197 198 199
198 1 198 199 200
