#Actin filament

13 atoms
12 bonds
11 angles

1 atom types
3 bond types
1 angle types

-500 500 xlo xhi
-500 500 ylo yhi
-0.05 0.05 zlo zhi

Masses

1 1


Atoms

1 1 1 -150 0 0
2 1 1 -135.028993388 0.932180791986 0
3 1 1 -120.250662484 3.50140941119 0
4 1 1 -105.296028238 4.66713431429 0
5 1 1 -90.3431353442 5.85498704656 0
6 1 1 -75.3815739407 6.92815076699 0
7 1 1 -60.5656996077 9.27119744777 0
8 1 1 -46.7458421578 15.1031388109 0
9 1 1 -33.3639437309 21.8799223026 0
10 1 1 -20.5664200949 29.7044599109 0
11 1 1 -7.24024700829 36.5901778014 0
12 1 1 5.6332588852 44.2890638254 0
13 1 1 19.2088105135 50.6690636676 0


Bonds

0 1 1 2
1 2 2 3
2 3 3 4
3 1 4 5
4 2 5 6
5 3 6 7
6 1 7 8
7 2 8 9
8 3 9 10
9 1 10 11
10 2 11 12
11 3 12 13


Angles

1 1 1 2 3
2 1 2 3 4
3 1 3 4 5
4 1 4 5 6
5 1 5 6 7
6 1 6 7 8
7 1 7 8 9
8 1 8 9 10
9 1 9 10 11
10 1 10 11 12
11 1 11 12 13
