#Actin filament

2500 atoms
2499 bonds
2498 angles

1 atom types
3 bond types
1 angle types

-500 500 xlo xhi
-500 500 ylo yhi
-0.05 0.05 zlo zhi

Masses

1 1


Atoms

1 1 1 -150 0 0
2 1 1 -149.92080546 0.0113236397396 0
3 1 1 -149.841830672 0.0240901152104 0
4 1 1 -149.762003576 0.0293469938927 0
5 1 1 -149.683296835 0.0436735057715 0
6 1 1 -149.603942253 0.0538150139931 0
7 1 1 -149.524112768 0.0590354862298 0
8 1 1 -149.444145237 0.0613145182281 0
9 1 1 -149.365423717 0.0755596018195 0
10 1 1 -149.286459598 0.0883918977343 0
11 1 1 -149.210734006 0.11419179584 0
12 1 1 -149.134839956 0.139491859276 0
13 1 1 -149.058131892 0.162204695207 0
14 1 1 -148.978640341 0.171209876993 0
15 1 1 -148.902374508 0.195366092846 0
16 1 1 -148.823185676 0.206729581875 0
17 1 1 -148.744404992 0.220643739443 0
18 1 1 -148.665883802 0.235954610143 0
19 1 1 -148.586617918 0.246767549154 0
20 1 1 -148.506633253 0.248333845403 0
21 1 1 -148.42663931 0.247349395393 0
22 1 1 -148.346873347 0.253464219891 0
23 1 1 -148.266889277 0.251867816416 0
24 1 1 -148.187576495 0.241404417758 0
25 1 1 -148.10758616 0.242647902855 0
26 1 1 -148.029676331 0.260815415169 0
27 1 1 -147.950579238 0.272800817772 0
28 1 1 -147.871769731 0.286550787403 0
29 1 1 -147.792479762 0.29718567742 0
30 1 1 -147.714636067 0.315634502282 0
31 1 1 -147.634656478 0.317441516004 0
32 1 1 -147.554669014 0.318857684471 0
33 1 1 -147.474741299 0.32225774004 0
34 1 1 -147.395914525 0.308607109967 0
35 1 1 -147.317371572 0.293408273373 0
36 1 1 -147.239181618 0.276486954094 0
37 1 1 -147.164054209 0.248993821412 0
38 1 1 -147.089671022 0.219546553632 0
39 1 1 -147.011368948 0.20315188332 0
40 1 1 -146.933100206 0.186598816096 0
41 1 1 -146.855956705 0.165412022338 0
42 1 1 -146.778066578 0.147160227063 0
43 1 1 -146.699586666 0.131639162108 0
44 1 1 -146.620022045 0.123304230811 0
45 1 1 -146.540967613 0.111040594342 0
46 1 1 -146.462163503 0.0972597302204 0
47 1 1 -146.382927243 0.0862318025969 0
48 1 1 -146.303288925 0.078633228185 0
49 1 1 -146.223358601 0.0752950654293 0
50 1 1 -146.143688811 0.0825562229029 0
51 1 1 -146.064912946 0.0964976406857 0
52 1 1 -145.98619568 0.110766212445 0
53 1 1 -145.910175323 0.135684184136 0
54 1 1 -145.835274011 0.163787448755 0
55 1 1 -145.760952941 0.19339113818 0
56 1 1 -145.686065745 0.221531997033 0
57 1 1 -145.608929822 0.242746363154 0
58 1 1 -145.53188364 0.264284372139 0
59 1 1 -145.453767269 0.281542201593 0
60 1 1 -145.37687353 0.303618272882 0
61 1 1 -145.300372079 0.327017586588 0
62 1 1 -145.226755306 0.358331652993 0
63 1 1 -145.150628387 0.382922144245 0
64 1 1 -145.076853167 0.413861065316 0
65 1 1 -145.001949049 0.441956850162 0
66 1 1 -144.926489546 0.468524940051 0
67 1 1 -144.850239482 0.492730883816 0
68 1 1 -144.773776004 0.516253992029 0
69 1 1 -144.696246292 0.535980716826 0
70 1 1 -144.624261887 0.570884091 0
71 1 1 -144.552298199 0.605830156881 0
72 1 1 -144.480689756 0.641498502669 0
73 1 1 -144.414928309 0.687055413043 0
74 1 1 -144.349207795 0.73267135362 0
75 1 1 -144.284482869 0.779689265749 0
76 1 1 -144.217940796 0.824098189803 0
77 1 1 -144.157045271 0.875980122438 0
78 1 1 -144.08476176 0.910259768281 0
79 1 1 -144.015195522 0.949763419394 0
80 1 1 -143.952840346 0.999881600353 0
81 1 1 -143.895479972 1.05564706881 0
82 1 1 -143.842728805 1.11579118253 0
83 1 1 -143.78573145 1.17192763677 0
84 1 1 -143.732379416 1.23153938454 0
85 1 1 -143.67993404 1.291950332 0
86 1 1 -143.630822902 1.35510170667 0
87 1 1 -143.585058711 1.42071907332 0
88 1 1 -143.546278167 1.49069099185 0
89 1 1 -143.505928216 1.55976979841 0
90 1 1 -143.463992115 1.62789735074 0
91 1 1 -143.416462558 1.69224749597 0
92 1 1 -143.374875195 1.76058848869 0
93 1 1 -143.33507124 1.82998333835 0
94 1 1 -143.290145237 1.89617740344 0
95 1 1 -143.238957603 1.95765769374 0
96 1 1 -143.19086143 2.02158545101 0
97 1 1 -143.145297682 2.087342161 0
98 1 1 -143.091381154 2.14644383549 0
99 1 1 -143.044252381 2.21108808314 0
100 1 1 -142.993408117 2.27285264302 0
101 1 1 -142.941876966 2.33404529372 0
102 1 1 -142.882132781 2.38724898145 0
103 1 1 -142.827929969 2.44608821258 0
104 1 1 -142.767053492 2.49799249568 0
105 1 1 -142.708262436 2.55224755677 0
106 1 1 -142.646862738 2.60353183373 0
107 1 1 -142.582108667 2.65050959798 0
108 1 1 -142.51975474 2.70062933312 0
109 1 1 -142.456426838 2.7495126311 0
110 1 1 -142.389174639 2.79283862485 0
111 1 1 -142.322386061 2.83687594753 0
112 1 1 -142.257225031 2.88328758591 0
113 1 1 -142.187913089 2.92323573506 0
114 1 1 -142.114008311 2.95386388955 0
115 1 1 -142.038600122 2.98057727634 0
116 1 1 -141.96339066 3.0078451478 0
117 1 1 -141.888265304 3.03534389164 0
118 1 1 -141.817705979 3.07304510781 0
119 1 1 -141.746139288 3.10879715271 0
120 1 1 -141.668858688 3.12947827382 0
121 1 1 -141.590462229 3.14541550504 0
122 1 1 -141.512822952 3.16470650384 0
123 1 1 -141.435882853 3.18662045412 0
124 1 1 -141.358564938 3.20716163106 0
125 1 1 -141.283628866 3.23517207756 0
126 1 1 -141.215885311 3.27772569977 0
127 1 1 -141.156086329 3.33086778975 0
128 1 1 -141.086950054 3.3711191937 0
129 1 1 -141.020452892 3.41559533848 0
130 1 1 -140.959567325 3.46748895749 0
131 1 1 -140.906631407 3.52747052619 0
132 1 1 -140.852906244 3.58674621107 0
133 1 1 -140.79493261 3.64187386114 0
134 1 1 -140.74008734 3.70011470929 0
135 1 1 -140.684517672 3.75766479152 0
136 1 1 -140.625405422 3.81156972535 0
137 1 1 -140.568468146 3.86776711504 0
138 1 1 -140.503249115 3.91409721372 0
139 1 1 -140.427777215 3.9406300651 0
140 1 1 -140.354409022 3.9725222009 0
141 1 1 -140.280019423 4.00195326488 0
142 1 1 -140.202971226 4.02348406653 0
143 1 1 -140.125306014 4.04267038374 0
144 1 1 -140.047693196 4.06206756232 0
145 1 1 -139.970873772 4.08440085641 0
146 1 1 -139.897225161 4.11563996792 0
147 1 1 -139.824348117 4.1486390062 0
148 1 1 -139.755906702 4.19006089221 0
149 1 1 -139.689104572 4.23407765536 0
150 1 1 -139.626589645 4.28399642926 0
151 1 1 -139.568266557 4.33875423625 0
152 1 1 -139.509094907 4.3925939591 0
153 1 1 -139.445299102 4.44086501966 0
154 1 1 -139.391172346 4.49977422306 0
155 1 1 -139.331521548 4.55308259284 0
156 1 1 -139.28055268 4.61474436858 0
157 1 1 -139.236862624 4.68176062751 0
158 1 1 -139.196336673 4.75073632857 0
159 1 1 -139.172392964 4.82706914437 0
160 1 1 -139.151850549 4.90438673107 0
161 1 1 -139.133538234 4.98226265222 0
162 1 1 -139.113485351 5.05970864548 0
163 1 1 -139.08950986 5.13603148508 0
164 1 1 -139.073364199 5.21438528283 0
165 1 1 -139.057495505 5.29279564298 0
166 1 1 -139.035395466 5.3696824965 0
167 1 1 -139.009142541 5.44525222552 0
168 1 1 -138.996697141 5.52427824668 0
169 1 1 -138.973355575 5.60079733773 0
170 1 1 -138.956285768 5.67895500966 0
171 1 1 -138.926798173 5.75332221855 0
172 1 1 -138.891565811 5.82514617472 0
173 1 1 -138.863034379 5.89988543722 0
174 1 1 -138.841079692 5.97681392175 0
175 1 1 -138.809559602 6.05034271825 0
176 1 1 -138.784595278 6.12634786625 0
177 1 1 -138.75148206 6.1991731009 0
178 1 1 -138.714709286 6.27022071258 0
179 1 1 -138.679843371 6.34222326781 0
180 1 1 -138.650184151 6.41652219555 0
181 1 1 -138.629222851 6.49372727254 0
182 1 1 -138.605586796 6.57015591184 0
183 1 1 -138.586491818 6.64784363162 0
184 1 1 -138.56932424 6.72597988602 0
185 1 1 -138.575109209 6.80577045019 0
186 1 1 -138.575772282 6.88576770223 0
187 1 1 -138.580268161 6.96564127152 0
188 1 1 -138.572846143 7.04529623769 0
189 1 1 -138.585351772 7.12431275007 0
190 1 1 -138.595234853 7.20369993234 0
191 1 1 -138.605183096 7.28307897535 0
192 1 1 -138.611040714 7.36286423907 0
193 1 1 -138.613712055 7.44281962625 0
194 1 1 -138.612550548 7.52281119394 0
195 1 1 -138.607538917 7.60265406182 0
196 1 1 -138.600224221 7.68231895512 0
197 1 1 -138.601483155 7.76230904879 0
198 1 1 -138.616231719 7.84093779587 0
199 1 1 -138.637470741 7.91806693389 0
200 1 1 -138.646261969 7.99758243122 0
201 1 1 -138.650666542 8.07746108756 0
202 1 1 -138.658835936 8.15704287564 0
203 1 1 -138.665117882 8.23679585149 0
204 1 1 -138.685648529 8.31411656371 0
205 1 1 -138.701211477 8.39258818057 0
206 1 1 -138.718924604 8.47060257102 0
207 1 1 -138.737601047 8.54839196945 0
208 1 1 -138.75582575 8.62628844041 0
209 1 1 -138.772062973 8.70462331496 0
210 1 1 -138.787983389 8.78302318967 0
211 1 1 -138.803657952 8.86147258797 0
212 1 1 -138.821590627 8.93943680523 0
213 1 1 -138.839284259 9.01745561948 0
214 1 1 -138.859511181 9.09485634061 0
215 1 1 -138.88600852 9.17034071655 0
216 1 1 -138.922221542 9.24167525974 0
217 1 1 -138.958264733 9.31309576369 0
218 1 1 -138.993992677 9.38467448984 0
219 1 1 -139.027353708 9.45738653559 0
220 1 1 -139.053058294 9.53314453355 0
221 1 1 -139.0770416 9.60946491766 0
222 1 1 -139.092436932 9.6879695911 0
223 1 1 -139.113775093 9.76507136073 0
224 1 1 -139.145543493 9.83849321551 0
225 1 1 -139.184443201 9.90839895737 0
226 1 1 -139.225907431 9.97681472732 0
227 1 1 -139.275486972 10.0395990338 0
228 1 1 -139.333499092 10.0946861823 0
229 1 1 -139.398390416 10.1414741735 0
230 1 1 -139.470847905 10.1753845294 0
231 1 1 -139.54686923 10.2002995483 0
232 1 1 -139.626829806 10.2028107942 0
233 1 1 -139.706539197 10.2096235 0
234 1 1 -139.783022026 10.2330836103 0
235 1 1 -139.861887945 10.2465062366 0
236 1 1 -139.937971312 10.2712311481 0
237 1 1 -140.017678315 10.278071732 0
238 1 1 -140.097527596 10.2829801346 0
239 1 1 -140.176848413 10.2933824443 0
240 1 1 -140.254956025 10.3106798681 0
241 1 1 -140.331196399 10.3349163156 0
242 1 1 -140.404809834 10.3662382277 0
243 1 1 -140.478078766 10.3983577489 0
244 1 1 -140.549411215 10.4345748946 0
245 1 1 -140.615444596 10.4797367438 0
246 1 1 -140.68182819 10.5243822195 0
247 1 1 -140.752619208 10.561646569 0
248 1 1 -140.824103668 10.5975627493 0
249 1 1 -140.89324213 10.6378103957 0
250 1 1 -140.962175131 10.6784089337 0
251 1 1 -141.025886608 10.7267912418 0
252 1 1 -141.094389424 10.7681115066 0
253 1 1 -141.164138465 10.8072914918 0
254 1 1 -141.236955968 10.8404217083 0
255 1 1 -141.314192428 10.8612670715 0
256 1 1 -141.393507042 10.8717165761 0
257 1 1 -141.472535865 10.8841441668 0
258 1 1 -141.550564349 10.9017951095 0
259 1 1 -141.627152138 10.9249102686 0
260 1 1 -141.701709303 10.953914219 0
261 1 1 -141.762864967 11.0054892584 0
262 1 1 -141.828455131 11.0512924286 0
263 1 1 -141.898356747 11.0901995501 0
264 1 1 -141.964608144 11.135040964 0
265 1 1 -142.021988392 11.1907859833 0
266 1 1 -142.076200423 11.249616721 0
267 1 1 -142.119277663 11.3170285256 0
268 1 1 -142.178684047 11.3706091333 0
269 1 1 -142.24723596 11.4118478916 0
270 1 1 -142.30047153 11.4715636689 0
271 1 1 -142.346253742 11.5371684637 0
272 1 1 -142.394568435 11.6009312304 0
273 1 1 -142.43746064 11.6684609184 0
274 1 1 -142.480831186 11.7356843946 0
275 1 1 -142.525475912 11.8020684924 0
276 1 1 -142.565724824 11.871206218 0
277 1 1 -142.612336856 11.9362240496 0
278 1 1 -142.664187935 11.9971458487 0
279 1 1 -142.709217679 12.0632693862 0
280 1 1 -142.760034498 12.1250565274 0
281 1 1 -142.811184512 12.1865681208 0
282 1 1 -142.865391862 12.2454031714 0
283 1 1 -142.925346133 12.2983700044 0
284 1 1 -142.990940985 12.3441664604 0
285 1 1 -143.057705078 12.3882408969 0
286 1 1 -143.128390078 12.425705957 0
287 1 1 -143.204119096 12.4514957973 0
288 1 1 -143.280381773 12.475661974 0
289 1 1 -143.355633827 12.502812081 0
290 1 1 -143.433815773 12.5197703629 0
291 1 1 -143.512493156 12.5342572343 0
292 1 1 -143.591997506 12.5431487078 0
293 1 1 -143.671360074 12.5532275415 0
294 1 1 -143.75129366 12.5564866352 0
295 1 1 -143.831100302 12.5509278615 0
296 1 1 -143.910656301 12.5425110308 0
297 1 1 -143.990588835 12.5392262151 0
298 1 1 -144.069826522 12.5282085535 0
299 1 1 -144.149533016 12.5213620276 0
300 1 1 -144.229329743 12.5156627046 0
301 1 1 -144.308187132 12.5291353511 0
302 1 1 -144.386204834 12.546833886 0
303 1 1 -144.461956541 12.5725570067 0
304 1 1 -144.537073918 12.6000775394 0
305 1 1 -144.613389156 12.6240772152 0
306 1 1 -144.684602371 12.6605282504 0
307 1 1 -144.756679748 12.6952392244 0
308 1 1 -144.829123382 12.7291791702 0
309 1 1 -144.900474862 12.7653588102 0
310 1 1 -144.961700594 12.8168506511 0
311 1 1 -145.022649522 12.8686698385 0
312 1 1 -145.081626181 12.9227230873 0
313 1 1 -145.146953919 12.968899777 0
314 1 1 -145.216704017 13.0080778813 0
315 1 1 -145.290727945 13.0384169318 0
316 1 1 -145.363437549 13.071783286 0
317 1 1 -145.434727961 13.1080831081 0
318 1 1 -145.505957362 13.1445025054 0
319 1 1 -145.576222075 13.1827499888 0
320 1 1 -145.648427965 13.2171928321 0
321 1 1 -145.722461317 13.2475088819 0
322 1 1 -145.795872985 13.2793008151 0
323 1 1 -145.872290524 13.3029727341 0
324 1 1 -145.94999765 13.321988581 0
325 1 1 -146.027193063 13.342985446 0
326 1 1 -146.106804427 13.3508614014 0
327 1 1 -146.185576573 13.364823817 0
328 1 1 -146.264973269 13.3746301735 0
329 1 1 -146.343301447 13.3908996691 0
330 1 1 -146.422203625 13.4041074845 0
331 1 1 -146.500058145 13.4225105739 0
332 1 1 -146.577395366 13.4429789458 0
333 1 1 -146.654427933 13.4645656003 0
334 1 1 -146.73140872 13.4863361861 0
335 1 1 -146.80597154 13.5153255957 0
336 1 1 -146.873438642 13.5583161776 0
337 1 1 -146.932491328 13.6122863574 0
338 1 1 -146.996102983 13.6607998324 0
339 1 1 -147.058267413 13.7111544122 0
340 1 1 -147.121255423 13.7604749005 0
341 1 1 -147.187838642 13.80482211 0
342 1 1 -147.246450427 13.859270789 0
343 1 1 -147.302484545 13.9163687545 0
344 1 1 -147.355844535 13.9759733807 0
345 1 1 -147.403376832 14.0403215016 0
346 1 1 -147.456400303 14.1002256879 0
347 1 1 -147.515060268 14.1546224577 0
348 1 1 -147.571525044 14.211294576 0
349 1 1 -147.62934874 14.2665794768 0
350 1 1 -147.685522888 14.3235396828 0
351 1 1 -147.745336912 14.3766648425 0
352 1 1 -147.813696952 14.4182208873 0
353 1 1 -147.878886663 14.464592232 0
354 1 1 -147.943590011 14.5116398327 0
355 1 1 -147.994026593 14.5737377493 0
356 1 1 -148.046634869 14.6340068891 0
357 1 1 -148.099009434 14.6944792377 0
358 1 1 -148.141912441 14.7620020635 0
359 1 1 -148.177147583 14.833824656 0
360 1 1 -148.211864286 14.9058992737 0
361 1 1 -148.256008098 14.9726175162 0
362 1 1 -148.290594535 15.044754735 0
363 1 1 -148.32597704 15.1165048458 0
364 1 1 -148.372655679 15.1814748748 0
365 1 1 -148.427171957 15.2400237889 0
366 1 1 -148.474374874 15.3046139169 0
367 1 1 -148.52447021 15.3669874479 0
368 1 1 -148.561273447 15.4380192838 0
369 1 1 -148.597995377 15.5090931881 0
370 1 1 -148.632007076 15.5815031622 0
371 1 1 -148.663221039 15.6551624352 0
372 1 1 -148.696169181 15.7280625032 0
373 1 1 -148.721846837 15.8038296332 0
374 1 1 -148.739180707 15.8819291656 0
375 1 1 -148.764241539 15.9579025469 0
376 1 1 -148.80103632 16.0289387637 0
377 1 1 -148.842809028 16.097166624 0
378 1 1 -148.892572101 16.1598055618 0
379 1 1 -148.932120676 16.2293462709 0
380 1 1 -148.966873809 16.3014033297 0
381 1 1 -148.989153553 16.3782383023 0
382 1 1 -148.99857183 16.4576819682 0
383 1 1 -148.996355902 16.5376512728 0
384 1 1 -148.997116391 16.617647658 0
385 1 1 -148.992938639 16.6975384985 0
386 1 1 -148.993076322 16.77753838 0
387 1 1 -149.003499312 16.8568564819 0
388 1 1 -149.019083063 16.93532397 0
389 1 1 -149.027141917 17.014917028 0
390 1 1 -149.037617784 17.0942281635 0
391 1 1 -149.056581987 17.1719479098 0
392 1 1 -149.073521978 17.2501338211 0
393 1 1 -149.084304419 17.3294038594 0
394 1 1 -149.101473782 17.4075397217 0
395 1 1 -149.114237343 17.4865149805 0
396 1 1 -149.126911396 17.5655046532 0
397 1 1 -149.143146963 17.643839871 0
398 1 1 -149.157825218 17.7224817735 0
399 1 1 -149.166809817 17.8019756537 0
400 1 1 -149.175279807 17.8815260105 0
401 1 1 -149.195287105 17.9589837928 0
402 1 1 -149.213102448 18.0369749048 0
403 1 1 -149.23730566 18.1132258361 0
404 1 1 -149.271547148 18.1855274303 0
405 1 1 -149.291860165 18.2629056011 0
406 1 1 -149.313311633 18.3399759231 0
407 1 1 -149.338531646 18.4158966118 0
408 1 1 -149.365916648 18.4910635037 0
409 1 1 -149.394997585 18.5655906739 0
410 1 1 -149.431562434 18.6367455182 0
411 1 1 -149.484303458 18.6968985257 0
412 1 1 -149.538610011 18.7556420213 0
413 1 1 -149.590957104 18.8161381526 0
414 1 1 -149.643892958 18.8761197782 0
415 1 1 -149.701766434 18.9313525646 0
416 1 1 -149.766615039 18.978199746 0
417 1 1 -149.828026532 19.0294698991 0
418 1 1 -149.888376862 19.0819850175 0
419 1 1 -149.95402091 19.1277109286 0
420 1 1 -150.016283862 19.1779436346 0
421 1 1 -150.073248757 19.234113028 0
422 1 1 -150.131463817 19.2889856701 0
423 1 1 -150.18480715 19.348605204 0
424 1 1 -150.241308281 19.4052410774 0
425 1 1 -150.304405954 19.4544211924 0
426 1 1 -150.372032944 19.4971598192 0
427 1 1 -150.439383007 19.540333527 0
428 1 1 -150.51125239 19.5754731308 0
429 1 1 -150.581052627 19.6145618356 0
430 1 1 -150.654143387 19.6470847644 0
431 1 1 -150.724380707 19.6853825294 0
432 1 1 -150.789106077 19.732399829 0
433 1 1 -150.859450888 19.7704997976 0
434 1 1 -150.927973691 19.8117869078 0
435 1 1 -150.995308763 19.8549839918 0
436 1 1 -151.059210653 19.9031145277 0
437 1 1 -151.12875865 19.9426502856 0
438 1 1 -151.199157078 19.9806510915 0
439 1 1 -151.25968072 20.0329663738 0
440 1 1 -151.319230667 20.0863873796 0
441 1 1 -151.381823963 20.1362078498 0
442 1 1 -151.432203226 20.1983522777 0
443 1 1 -151.487847162 20.2558305548 0
444 1 1 -151.550066358 20.3061174477 0
445 1 1 -151.615941085 20.3515104027 0
446 1 1 -151.679946972 20.3995025533 0
447 1 1 -151.747341073 20.4426074838 0
448 1 1 -151.806463231 20.4965015514 0
449 1 1 -151.860505487 20.5554882828 0
450 1 1 -151.911806339 20.6168741332 0
451 1 1 -151.958887756 20.6815528788 0
452 1 1 -152.004306827 20.7474096024 0
453 1 1 -152.050892851 20.8124460718 0
454 1 1 -152.091469071 20.8813922131 0
455 1 1 -152.125427396 20.9538272333 0
456 1 1 -152.145562565 21.0312518737 0
457 1 1 -152.167638885 21.1081455412 0
458 1 1 -152.169503951 21.1881237978 0
459 1 1 -152.182946851 21.2669862633 0
460 1 1 -152.192296141 21.3464380774 0
461 1 1 -152.215144333 21.4231059334 0
462 1 1 -152.235232651 21.5005427429 0
463 1 1 -152.260021633 21.5766052589 0
464 1 1 -152.281607547 21.6536380334 0
465 1 1 -152.310852642 21.7281009397 0
466 1 1 -152.328126461 21.806213776 0
467 1 1 -152.344885759 21.884438618 0
468 1 1 -152.360503385 21.9628993711 0
469 1 1 -152.375363641 22.0415070856 0
470 1 1 -152.394834596 22.1191014276 0
471 1 1 -152.416116524 22.196218738 0
472 1 1 -152.432819037 22.2744557244 0
473 1 1 -152.453517843 22.3517315902 0
474 1 1 -152.471226475 22.4297470013 0
475 1 1 -152.480016673 22.5092626124 0
476 1 1 -152.48694482 22.5889620527 0
477 1 1 -152.495287914 22.6685258182 0
478 1 1 -152.494418591 22.7485210948 0
479 1 1 -152.487512852 22.8282224798 0
480 1 1 -152.486309733 22.9082134324 0
481 1 1 -152.48737643 22.9882063206 0
482 1 1 -152.491263559 23.0681118287 0
483 1 1 -152.500632844 23.1475612875 0
484 1 1 -152.511457018 23.226825638 0
485 1 1 -152.53131537 23.3043217401 0
486 1 1 -152.554027306 23.3810300707 0
487 1 1 -152.573756437 23.4585591709 0
488 1 1 -152.589994897 23.5368937891 0
489 1 1 -152.60850438 23.6147230834 0
490 1 1 -152.623385098 23.693326927 0
491 1 1 -152.638027258 23.771975558 0
492 1 1 -152.651404278 23.850849225 0
493 1 1 -152.64704618 23.9307304304 0
494 1 1 -152.645672396 24.010718634 0
495 1 1 -152.640619336 24.0905588907 0
496 1 1 -152.649633971 24.1700493704 0
497 1 1 -152.658197726 24.2495896878 0
498 1 1 -152.671949232 24.3283989264 0
499 1 1 -152.687208642 24.4069301329 0
500 1 1 -152.69757761 24.4862553149 0
501 1 1 -152.700329787 24.5662079604 0
502 1 1 -152.702103583 24.6461882933 0
503 1 1 -152.698413795 24.7261031572 0
504 1 1 -152.688350069 24.8054676418 0
505 1 1 -152.692887201 24.8853388784 0
506 1 1 -152.704985571 24.9644187711 0
507 1 1 -152.714744991 25.0438212505 0
508 1 1 -152.715744681 25.1238150042 0
509 1 1 -152.717570191 25.2037941734 0
510 1 1 -152.725582186 25.2833919619 0
511 1 1 -152.719345137 25.3631484615 0
512 1 1 -152.707033167 25.4421953804 0
513 1 1 -152.698024792 25.5216865697 0
514 1 1 -152.702355116 25.6015692856 0
515 1 1 -152.698535011 25.681478026 0
516 1 1 -152.673308002 25.7573963901 0
517 1 1 -152.655838951 25.8354657968 0
518 1 1 -152.644006289 25.9145858834 0
519 1 1 -152.630683395 25.993468711 0
520 1 1 -152.610966433 26.0710009071 0
521 1 1 -152.592319798 26.1487974559 0
522 1 1 -152.563818884 26.2235483614 0
523 1 1 -152.537031064 26.2989301411 0
524 1 1 -152.519205718 26.3769189674 0
525 1 1 -152.510358343 26.4564282371 0
526 1 1 -152.501822367 26.5359715405 0
527 1 1 -152.490910902 26.6152239216 0
528 1 1 -152.476776308 26.6939653545 0
529 1 1 -152.475111568 26.7739480317 0
530 1 1 -152.482972422 26.8535608885 0
531 1 1 -152.48045088 26.93352114 0
532 1 1 -152.482901118 27.0134836083 0
533 1 1 -152.473755179 27.0929590876 0
534 1 1 -152.45673803 27.1711282415 0
535 1 1 -152.429672266 27.2464106728 0
536 1 1 -152.406390798 27.3229480705 0
537 1 1 -152.369146541 27.3937496614 0
538 1 1 -152.32941489 27.4631859339 0
539 1 1 -152.306543907 27.5398469939 0
540 1 1 -152.268005062 27.6099523249 0
541 1 1 -152.226364551 27.6782609472 0
542 1 1 -152.196310048 27.7524008609 0
543 1 1 -152.157292641 27.8222409782 0
544 1 1 -152.13583414 27.8993093423 0
545 1 1 -152.123010417 27.9782748545 0
546 1 1 -152.121437799 28.0582593959 0
547 1 1 -152.11474835 28.1379792257 0
548 1 1 -152.098729659 28.2163590799 0
549 1 1 -152.099857887 28.2963511239 0
550 1 1 -152.096426618 28.3762775049 0
551 1 1 -152.082940145 28.4551325306 0
552 1 1 -152.078930277 28.5350319733 0
553 1 1 -152.068260053 28.6143171947 0
554 1 1 -152.057354634 28.6935704081 0
555 1 1 -152.050600846 28.7732848129 0
556 1 1 -152.047244236 28.8532143642 0
557 1 1 -152.030550992 28.9314533291 0
558 1 1 -151.999016886 29.0049761157 0
559 1 1 -151.961065293 29.0754010872 0
560 1 1 -151.915726104 29.1413128302 0
561 1 1 -151.866710425 29.2045383256 0
562 1 1 -151.821054501 29.2702310693 0
563 1 1 -151.777989813 29.3376508933 0
564 1 1 -151.716414608 29.3887243119 0
565 1 1 -151.650135179 29.4335242819 0
566 1 1 -151.580726308 29.4733037827 0
567 1 1 -151.517434624 29.5222339643 0
568 1 1 -151.456072981 29.5735637684 0
569 1 1 -151.395711021 29.6260655184 0
570 1 1 -151.334653652 29.6777568886 0
571 1 1 -151.275789425 29.7319325544 0
572 1 1 -151.215329408 29.7843213537 0
573 1 1 -151.158908599 29.8410372452 0
574 1 1 -151.102395541 29.8976612178 0
575 1 1 -151.056482264 29.963174354 0
576 1 1 -151.001177456 30.0209790096 0
577 1 1 -150.940925095 30.0736065025 0
578 1 1 -150.872991781 30.1158565292 0
579 1 1 -150.803754744 30.155934363 0
580 1 1 -150.736802459 30.1997223925 0
581 1 1 -150.675733763 30.2514003804 0
582 1 1 -150.623450336 30.3119515424 0
583 1 1 -150.571226584 30.3725541806 0
584 1 1 -150.526831921 30.4391057683 0
585 1 1 -150.490238621 30.5102459848 0
586 1 1 -150.448376545 30.5784190487 0
587 1 1 -150.412573022 30.6499600003 0
588 1 1 -150.370886839 30.7182407597 0
589 1 1 -150.325655873 30.784226817 0
590 1 1 -150.276889321 30.8476446647 0
591 1 1 -150.227014 30.9101942635 0
592 1 1 -150.172974536 30.969183553 0
593 1 1 -150.116498387 31.0258443385 0
594 1 1 -150.064473213 31.0866175339 0
595 1 1 -150.014655529 31.1492130479 0
596 1 1 -149.9730837 31.2175634905 0
597 1 1 -149.92870196 31.2841236977 0
598 1 1 -149.891782505 31.3550951978 0
599 1 1 -149.854711715 31.4259877683 0
600 1 1 -149.803698545 31.487612897 0
601 1 1 -149.756765631 31.5523994819 0
602 1 1 -149.70661307 31.6147270093 0
603 1 1 -149.66117084 31.680567754 0
604 1 1 -149.625936499 31.7523907396 0
605 1 1 -149.595919008 31.8265456463 0
606 1 1 -149.567581314 31.9013585805 0
607 1 1 -149.537194999 31.9753631198 0
608 1 1 -149.502321156 32.0473618357 0
609 1 1 -149.466044878 32.1186642316 0
610 1 1 -149.427836974 32.1889504756 0
611 1 1 -149.392305021 32.2606266943 0
612 1 1 -149.3706238 32.3376326983 0
613 1 1 -149.359750687 32.4168903504 0
614 1 1 -149.342684887 32.4950488974 0
615 1 1 -149.337338155 32.5748700252 0
616 1 1 -149.328787501 32.6544117522 0
617 1 1 -149.309500332 32.7320519809 0
618 1 1 -149.297283289 32.8111136267 0
619 1 1 -149.29399833 32.8910461548 0
620 1 1 -149.288447353 32.970853339 0
621 1 1 -149.284736447 33.050767225 0
622 1 1 -149.281576712 33.1307048011 0
623 1 1 -149.25440451 33.2059488803 0
624 1 1 -149.216303432 33.2762930903 0
625 1 1 -149.183828562 33.3494052152 0
626 1 1 -149.157860512 33.4250733086 0
627 1 1 -149.125866301 33.4983970459 0
628 1 1 -149.084820139 33.5670644515 0
629 1 1 -149.052107826 33.6400706472 0
630 1 1 -149.02375171 33.7148766006 0
631 1 1 -148.988890544 33.7868814556 0
632 1 1 -148.94912536 33.8562985292 0
633 1 1 -148.909745847 33.9259351141 0
634 1 1 -148.861612032 33.9898345341 0
635 1 1 -148.816122478 34.0556425918 0
636 1 1 -148.758804509 34.1114516449 0
637 1 1 -148.703385781 34.169147092 0
638 1 1 -148.653732918 34.2318734281 0
639 1 1 -148.590482668 34.2808571577 0
640 1 1 -148.539769641 34.3427295176 0
641 1 1 -148.487852541 34.403595064 0
642 1 1 -148.439024672 34.4669657135 0
643 1 1 -148.397442293 34.5353097385 0
644 1 1 -148.349667976 34.5994783804 0
645 1 1 -148.301545016 34.6633859761 0
646 1 1 -148.254535004 34.7281166394 0
647 1 1 -148.200929488 34.7875005484 0
648 1 1 -148.152074376 34.850850197 0
649 1 1 -148.101302995 34.912674682 0
650 1 1 -148.051226242 34.9750631324 0
651 1 1 -147.988829347 35.0251293639 0
652 1 1 -147.932705126 35.0821387645 0
653 1 1 -147.880615571 35.1428567875 0
654 1 1 -147.837313941 35.210124676 0
655 1 1 -147.793840678 35.2772817707 0
656 1 1 -147.747052956 35.3421732885 0
657 1 1 -147.701263031 35.4077727002 0
658 1 1 -147.646362618 35.4659615709 0
659 1 1 -147.59059146 35.5233164129 0
660 1 1 -147.549353346 35.5918687138 0
661 1 1 -147.498019187 35.6532267132 0
662 1 1 -147.439435671 35.7077058073 0
663 1 1 -147.379424586 35.7606082611 0
664 1 1 -147.331030671 35.8243109224 0
665 1 1 -147.280341102 35.8862025018 0
666 1 1 -147.223949327 35.9429472606 0
667 1 1 -147.17578068 36.0068204276 0
668 1 1 -147.129916863 36.0723681987 0
669 1 1 -147.093564769 36.1436319711 0
670 1 1 -147.055494038 36.2139926095 0
671 1 1 -147.022307653 36.2867845309 0
672 1 1 -146.98327242 36.3566146865 0
673 1 1 -146.946713037 36.427772339 0
674 1 1 -146.922134453 36.503903103 0
675 1 1 -146.910026258 36.5829814919 0
676 1 1 -146.892694609 36.6610815172 0
677 1 1 -146.864111985 36.7358012174 0
678 1 1 -146.818916828 36.8018118057 0
679 1 1 -146.772985002 36.8673119384 0
680 1 1 -146.728932671 36.9340906187 0
681 1 1 -146.696419444 37.0071856943 0
682 1 1 -146.671444504 37.0831873546 0
683 1 1 -146.643597583 37.1581843478 0
684 1 1 -146.619123995 37.2343489295 0
685 1 1 -146.614650521 37.3142237567 0
686 1 1 -146.609918178 37.3940836649 0
687 1 1 -146.610410448 37.4740821503 0
688 1 1 -146.616115441 37.5538784725 0
689 1 1 -146.623401333 37.6335460054 0
690 1 1 -146.639539145 37.7119014201 0
691 1 1 -146.655740099 37.7902438039 0
692 1 1 -146.668404025 37.8692351007 0
693 1 1 -146.683323088 37.9478316754 0
694 1 1 -146.710647294 38.0230206891 0
695 1 1 -146.751980373 38.0915157732 0
696 1 1 -146.796538716 38.1579578838 0
697 1 1 -146.841301292 38.2242625731 0
698 1 1 -146.887568691 38.2895260991 0
699 1 1 -146.940824024 38.3492242518 0
700 1 1 -146.99648864 38.4066825023 0
701 1 1 -147.054774779 38.4614796371 0
702 1 1 -147.110793513 38.5185926957 0
703 1 1 -147.155933082 38.5846413092 0
704 1 1 -147.206734209 38.6464413531 0
705 1 1 -147.254569845 38.7105642975 0
706 1 1 -147.299832726 38.7765284663 0
707 1 1 -147.347845717 38.8405187211 0
708 1 1 -147.395498752 38.9047774813 0
709 1 1 -147.447604818 38.9654813349 0
710 1 1 -147.503514083 39.0227015598 0
711 1 1 -147.557461556 39.0817749897 0
712 1 1 -147.613490841 39.1388776974 0
713 1 1 -147.663833521 39.2010517645 0
714 1 1 -147.708297875 39.2675568111 0
715 1 1 -147.758483809 39.3298574688 0
716 1 1 -147.808232249 39.3925080298 0
717 1 1 -147.860181932 39.4533457679 0
718 1 1 -147.916660411 39.510004231 0
719 1 1 -147.965886144 39.5730663207 0
720 1 1 -148.018257729 39.6335412508 0
721 1 1 -148.069525262 39.6949549305 0
722 1 1 -148.113045324 39.7620817076 0
723 1 1 -148.154348568 39.830594787 0
724 1 1 -148.187903047 39.9032177649 0
725 1 1 -148.207033786 39.9808966863 0
726 1 1 -148.23220619 40.0568331735 0
727 1 1 -148.258182025 40.1324985949 0
728 1 1 -148.280662117 40.2092751893 0
729 1 1 -148.303810104 40.2858530626 0
730 1 1 -148.32735751 40.3623090608 0
731 1 1 -148.356304466 40.4368883728 0
732 1 1 -148.386751034 40.5108681435 0
733 1 1 -148.420044717 40.5836110518 0
734 1 1 -148.450136191 40.6577359676 0
735 1 1 -148.483612335 40.7303950884 0
736 1 1 -148.519503168 40.8018922775 0
737 1 1 -148.5575206 40.8722817289 0
738 1 1 -148.602113166 40.9387008757 0
739 1 1 -148.654990981 40.9987336726 0
740 1 1 -148.709903958 41.0569106869 0
741 1 1 -148.771953772 41.1074064345 0
742 1 1 -148.83167096 41.1606404221 0
743 1 1 -148.8960737 41.2080986889 0
744 1 1 -148.969129192 41.2407007608 0
745 1 1 -149.028845985 41.2939351925 0
746 1 1 -149.081984449 41.3537373969 0
747 1 1 -149.142935324 41.4055542933 0
748 1 1 -149.192981667 41.467967141 0
749 1 1 -149.232597614 41.5374694918 0
750 1 1 -149.274232865 41.6057813201 0
751 1 1 -149.322115642 41.6698690696 0
752 1 1 -149.366769046 41.7362473308 0
753 1 1 -149.419380235 41.7965139283 0
754 1 1 -149.479526089 41.8492631107 0
755 1 1 -149.542784317 41.8982365372 0
756 1 1 -149.598755275 41.9553964173 0
757 1 1 -149.657090226 42.0101415858 0
758 1 1 -149.71363731 42.0667315793 0
759 1 1 -149.767228627 42.1261283024 0
760 1 1 -149.819606857 42.1865974762 0
761 1 1 -149.878366452 42.2408866097 0
762 1 1 -149.942999313 42.2880309978 0
763 1 1 -150.011469039 42.3294060694 0
764 1 1 -150.081725363 42.3676689632 0
765 1 1 -150.158501349 42.3901511306 0
766 1 1 -150.236187022 42.4092544362 0
767 1 1 -150.311964742 42.4349008235 0
768 1 1 -150.385092774 42.4673398579 0
769 1 1 -150.458054127 42.5001520635 0
770 1 1 -150.527166941 42.5404437377 0