#Actin filament

1176 atoms
1175 bonds
1174 angles

1 atom types
3 bond types
1 angle types

-500 500 xlo xhi
-500 500 ylo yhi
-0.05 0.05 zlo zhi

Masses

1 1


Atoms

1 1 1 -150 0 0
2 1 1 -149.831203128 0.0201895018406 0
3 1 1 -149.662184034 0.0384253469972 0
4 1 1 -149.492290161 0.0444313269409 0
5 1 1 -149.323606658 0.0233155534849 0
6 1 1 -149.15366091 0.0190210584985 0
7 1 1 -148.984316147 0.00410961260119 0
8 1 1 -148.814818116 -0.00894479398853 0
9 1 1 -148.64594668 -0.0285008186636 0
10 1 1 -148.480029836 -0.0655359485911 0
11 1 1 -148.312625379 -0.0951289836216 0
12 1 1 -148.143551919 -0.112853682824 0
13 1 1 -147.973618664 -0.108090390171 0
14 1 1 -147.803963555 -0.118913700462 0
15 1 1 -147.634956599 -0.13726169502 0
16 1 1 -147.465129991 -0.129585544451 0
17 1 1 -147.296120104 -0.111264573035 0
18 1 1 -147.128872389 -0.0807981664952 0
19 1 1 -146.965660674 -0.0332383538964 0
20 1 1 -146.799500605 0.00268979091123 0
21 1 1 -146.645497847 0.0746838918169 0
22 1 1 -146.502761815 0.167022535646 0
23 1 1 -146.360380892 0.25990780175 0
24 1 1 -146.22155415 0.358025770164 0
25 1 1 -146.079064207 0.450743709429 0
26 1 1 -145.946906385 0.557675042983 0
27 1 1 -145.812514573 0.661784796907 0
28 1 1 -145.680256686 0.768592339879 0
29 1 1 -145.566832048 0.895221134456 0
30 1 1 -145.427615365 0.992785037547 0
31 1 1 -145.275975634 1.06963158488 0
32 1 1 -145.126148184 1.1499542799 0
33 1 1 -144.96602 1.20704162196 0
34 1 1 -144.801154868 1.24850833549 0
35 1 1 -144.638203797 1.29695364971 0
36 1 1 -144.475644002 1.34669611512 0
37 1 1 -144.308803997 1.37932145632 0
38 1 1 -144.139794809 1.3976488798 0
39 1 1 -143.970034181 1.40666713943 0
40 1 1 -143.800871672 1.38981348336 0
41 1 1 -143.633934996 1.35768645127 0
42 1 1 -143.465478001 1.33483386176 0
43 1 1 -143.300325076 1.29452863765 0
44 1 1 -143.136579708 1.24883996648 0
45 1 1 -142.974828526 1.19652787512 0
46 1 1 -142.805559007 1.18078525763 0
47 1 1 -142.636973838 1.15889825385 0
48 1 1 -142.468497732 1.18160951783 0
49 1 1 -142.29852378 1.18458539742 0
50 1 1 -142.12867903 1.19184906527 0
51 1 1 -141.958925052 1.18270647484 0
52 1 1 -141.78985628 1.16493711336 0
53 1 1 -141.620138542 1.15514480161 0
54 1 1 -141.450613933 1.14244019316 0
55 1 1 -141.280629273 1.14472389061 0
56 1 1 -141.113907161 1.1779464325 0
57 1 1 -140.949864012 1.22255411458 0
58 1 1 -140.782223277 1.25077793336 0
59 1 1 -140.619568435 1.3002087173 0
60 1 1 -140.4550085 1.34287050412 0
61 1 1 -140.28868895 1.37805298931 0
62 1 1 -140.121245859 1.40742663919 0
63 1 1 -139.952432518 1.42747796883 0
64 1 1 -139.783331276 1.44493562563 0
65 1 1 -139.613338789 1.44653391444 0
66 1 1 -139.443349281 1.44464524696 0
67 1 1 -139.273677319 1.45520106339 0
68 1 1 -139.104721022 1.4363922962 0
69 1 1 -138.936432633 1.41232949795 0
70 1 1 -138.772362236 1.36782214294 0
71 1 1 -138.61050462 1.31584029661 0
72 1 1 -138.448282759 1.26500656883 0
73 1 1 -138.280358398 1.2385224434 0
74 1 1 -138.111621828 1.21783501176 0
75 1 1 -137.941639762 1.21536575348 0
76 1 1 -137.771714537 1.22040736169 0
77 1 1 -137.60266158 1.20248815959 0
78 1 1 -137.432763043 1.19661559359 0
79 1 1 -137.263294541 1.18318327736 0
80 1 1 -137.095075414 1.15864096508 0
81 1 1 -136.926214032 1.13899831505 0
82 1 1 -136.760202417 1.10239034101 0
83 1 1 -136.593515194 1.06899319189 0
84 1 1 -136.428974351 1.02625782945 0
85 1 1 -136.263698742 0.986458673331 0
86 1 1 -136.106442963 0.921878334249 0
87 1 1 -135.949532573 0.856463278524 0
88 1 1 -135.787907187 0.803763806721 0
89 1 1 -135.619213528 0.782729321716 0
90 1 1 -135.450127416 0.765125722509 0
91 1 1 -135.282278684 0.738166434581 0
92 1 1 -135.11868291 0.691944980503 0
93 1 1 -134.963042711 0.623562758053 0
94 1 1 -134.804932657 0.56110308482 0
95 1 1 -134.647504874 0.49694318165 0
96 1 1 -134.489146367 0.43511613934 0
97 1 1 -134.338334302 0.356657735173 0
98 1 1 -134.177247898 0.302333058467 0
99 1 1 -134.010369887 0.269902682143 0
100 1 1 -133.848722533 0.217270630142 0
101 1 1 -133.691578845 0.152418016211 0
102 1 1 -133.53158999 0.0949413576057 0
103 1 1 -133.381769932 0.0146048763048 0
104 1 1 -133.227772008 -0.0573995628868 0
105 1 1 -133.082900808 -0.146350872926 0
106 1 1 -132.942748074 -0.24256527399 0
107 1 1 -132.801875746 -0.337722971408 0
108 1 1 -132.652444585 -0.418780531715 0
109 1 1 -132.511474126 -0.513792792396 0
110 1 1 -132.35707421 -0.584931150694 0
111 1 1 -132.199311637 -0.648263373036 0
112 1 1 -132.032420814 -0.680627754676 0
113 1 1 -131.871636501 -0.735840115001 0
114 1 1 -131.710355652 -0.789584767537 0
115 1 1 -131.547438849 -0.838145196951 0
116 1 1 -131.383529993 -0.883243832193 0
117 1 1 -131.230678661 -0.957651294783 0
118 1 1 -131.085517532 -1.04612867277 0
119 1 1 -130.933686827 -1.12259720922 0
120 1 1 -130.795204739 -1.22120101867 0
121 1 1 -130.645158636 -1.30111451685 0
122 1 1 -130.497159798 -1.38475866645 0
123 1 1 -130.350315944 -1.47041427158 0
124 1 1 -130.208447269 -1.5640800545 0
125 1 1 -130.075131925 -1.66956474161 0
126 1 1 -129.942686133 -1.77613918626 0
127 1 1 -129.820127454 -1.89394992495 0
128 1 1 -129.698735995 -2.01296300656 0
129 1 1 -129.561813045 -2.11372066476 0
130 1 1 -129.423590517 -2.21268799643 0
131 1 1 -129.288675632 -2.31611900641 0
132 1 1 -129.164802001 -2.43254633807 0
133 1 1 -129.057772351 -2.56462455019 0
134 1 1 -128.954532657 -2.69968589052 0
135 1 1 -128.866464082 -2.84509540165 0
136 1 1 -128.765568239 -2.98191655847 0
137 1 1 -128.652586245 -3.10894044996 0
138 1 1 -128.541948884 -3.23801164899 0
139 1 1 -128.439306233 -3.37352728001 0
140 1 1 -128.322973578 -3.4974898283 0
141 1 1 -128.224213197 -3.63586029857 0
142 1 1 -128.101700396 -3.75371874566 0
143 1 1 -127.991007153 -3.88274202282 0
144 1 1 -127.874950349 -4.00696286731 0
145 1 1 -127.755802694 -4.12822224318 0
146 1 1 -127.623754428 -4.23528883746 0
147 1 1 -127.490214655 -4.3404892599 0
148 1 1 -127.373305154 -4.46390793187 0
149 1 1 -127.242013024 -4.57190041636 0
150 1 1 -127.109680835 -4.67861588766 0
151 1 1 -126.973197376 -4.77996807241 0
152 1 1 -126.836686198 -4.88128291913 0
153 1 1 -126.703433742 -4.98684703699 0
154 1 1 -126.568881611 -5.09074951112 0
155 1 1 -126.426096004 -5.18301147774 0
156 1 1 -126.27752813 -5.26564068959 0
157 1 1 -126.139383993 -5.36471741451 0
158 1 1 -126.036566662 -5.50010056121 0
159 1 1 -125.940522094 -5.64036973434 0
160 1 1 -125.851562008 -5.78523554501 0
161 1 1 -125.75812308 -5.92725373686 0
162 1 1 -125.672820489 -6.07430293927 0
163 1 1 -125.625780785 -6.23766531632 0
164 1 1 -125.576859053 -6.40047398993 0
165 1 1 -125.537672888 -6.56589600925 0
166 1 1 -125.494370888 -6.73028863917 0
167 1 1 -125.438835273 -6.89096158482 0
168 1 1 -125.426527155 -7.06051544125 0
169 1 1 -125.411584247 -7.22985743102 0
170 1 1 -125.384375158 -7.39766584992 0
171 1 1 -125.37792768 -7.5675435413 0
172 1 1 -125.384381927 -7.73742097561 0
173 1 1 -125.40424999 -7.90625598406 0
174 1 1 -125.41187381 -8.07608494913 0
175 1 1 -125.399633669 -8.24564372646 0
176 1 1 -125.39881408 -8.41564175078 0
177 1 1 -125.393372839 -8.58555464873 0
178 1 1 -125.375734892 -8.75463718137 0
179 1 1 -125.358839526 -8.92379552905 0
180 1 1 -125.342333521 -9.09299231328 0
181 1 1 -125.318681401 -9.26133891177 0
182 1 1 -125.279575378 -9.42677989516 0
183 1 1 -125.234278868 -9.59063417859 0
184 1 1 -125.181721975 -9.75230598505 0
185 1 1 -125.16135529 -9.92108157012 0
186 1 1 -125.171682475 -10.0907676015 0
187 1 1 -125.171673544 -10.2607676012 0
188 1 1 -125.205016187 -10.4274657361 0
189 1 1 -125.227078126 -10.596028101 0
190 1 1 -125.283830364 -10.7562753584 0
191 1 1 -125.335753127 -10.9181519369 0
192 1 1 -125.397082058 -11.0767040174 0
193 1 1 -125.452581638 -11.2373894137 0
194 1 1 -125.511608119 -11.3968129832 0
195 1 1 -125.580354118 -11.5522928458 0
196 1 1 -125.664120514 -11.7002225282 0
197 1 1 -125.74484127 -11.849835895 0
198 1 1 -125.830343555 -11.9967690748 0
199 1 1 -125.919002786 -12.1418192065 0
200 1 1 -126.006640236 -12.2874889607 0
201 1 1 -126.11734445 -12.4165028246 0
202 1 1 -126.240836135 -12.5333351994 0
203 1 1 -126.37166481 -12.6418886782 0
204 1 1 -126.496977331 -12.756765882 0
205 1 1 -126.586140778 -12.9015066149 0
206 1 1 -126.671140534 -13.0487310744 0
207 1 1 -126.76775901 -13.1886055539 0
208 1 1 -126.860681247 -13.3309623519 0
209 1 1 -126.972492634 -13.4590178622 0
210 1 1 -127.083006418 -13.588194886 0
211 1 1 -127.194194279 -13.7167921632 0
212 1 1 -127.293481213 -13.8547852962 0
213 1 1 -127.394913624 -13.991209143 0
214 1 1 -127.492534416 -14.1303859405 0
215 1 1 -127.596647302 -14.2647753262 0
216 1 1 -127.688968432 -14.4075226864 0
217 1 1 -127.763316167 -14.5604030786 0
218 1 1 -127.860587611 -14.6998242617 0
219 1 1 -127.953444697 -14.8422235647 0
220 1 1 -128.046653685 -14.984392776 0
221 1 1 -128.143141455 -15.1243574508 0
222 1 1 -128.242841034 -15.2620527446 0
223 1 1 -128.349451225 -15.3944697645 0
224 1 1 -128.453442268 -15.5289534548 0
225 1 1 -128.54011634 -15.6751984725 0
226 1 1 -128.60993585 -15.8301992338 0
227 1 1 -128.696478654 -15.9765219699 0
228 1 1 -128.798342092 -16.1126242846 0
229 1 1 -128.91713973 -16.2342265918 0
230 1 1 -129.030765651 -16.3606748031 0
231 1 1 -129.141090105 -16.4900135631 0
232 1 1 -129.254561477 -16.616600481 0
233 1 1 -129.363864277 -16.7468037753 0
234 1 1 -129.467985224 -16.8811869161 0
235 1 1 -129.564838366 -17.0208990085 0
236 1 1 -129.655255601 -17.1648598495 0
237 1 1 -129.772178365 -17.2882659558 0
238 1 1 -129.886898409 -17.4137223693 0
239 1 1 -129.999490906 -17.5410916337 0
240 1 1 -130.103483163 -17.6755743855 0
241 1 1 -130.219191284 -17.8001200826 0
242 1 1 -130.336008322 -17.9236262754 0
243 1 1 -130.451898925 -18.0480021903 0
244 1 1 -130.537623454 -18.1948058181 0
245 1 1 -130.639808669 -18.3306667094 0
246 1 1 -130.760627605 -18.45026096 0
247 1 1 -130.875662545 -18.5754286978 0
248 1 1 -130.97415597 -18.7139893171 0
249 1 1 -131.067457111 -18.8560980675 0
250 1 1 -131.156865522 -19.0006876109 0
251 1 1 -131.236627864 -19.1508141205 0
252 1 1 -131.312499586 -19.3029439395 0
253 1 1 -131.39523048 -19.4514552158 0
254 1 1 -131.460524997 -19.6084158032 0
255 1 1 -131.520502997 -19.7674838373 0
256 1 1 -131.609881492 -19.9120918754 0
257 1 1 -131.675790487 -20.068795431 0
258 1 1 -131.731811071 -20.2292999302 0
259 1 1 -131.796405598 -20.3865498812 0
260 1 1 -131.853401129 -20.5467107671 0
261 1 1 -131.908963841 -20.7073743442 0
262 1 1 -131.951024754 -20.8720888841 0
263 1 1 -131.96427564 -21.041571668 0
264 1 1 -131.97164684 -21.2114117851 0
265 1 1 -131.978465592 -21.381274979 0
266 1 1 -132.010177851 -21.5482909442 0
267 1 1 -132.043669848 -21.7149591358 0
268 1 1 -132.075965945 -21.8818631866 0
269 1 1 -132.097913859 -22.0504404361 0
270 1 1 -132.140607067 -22.2149922213 0
271 1 1 -132.167065435 -22.3829206429 0
272 1 1 -132.18651161 -22.5518047637 0
273 1 1 -132.202489897 -22.721052199 0
274 1 1 -132.23052117 -22.8887252371 0
275 1 1 -132.23957375 -23.058484039 0
276 1 1 -132.246616966 -23.2283380737 0
277 1 1 -132.247765254 -23.3983341955 0
278 1 1 -132.263513352 -23.5676032046 0
279 1 1 -132.285541193 -23.7361700287 0
280 1 1 -132.276891843 -23.9059498531 0
281 1 1 -132.269256095 -24.0757782822 0
282 1 1 -132.268251039 -24.2457753112 0
283 1 1 -132.262789113 -24.4156875455 0
284 1 1 -132.251760614 -24.5853294395 0
285 1 1 -132.218608684 -24.752065607 0
286 1 1 -132.18737808 -24.9191723075 0
287 1 1 -132.140405394 -25.0825539674 0
288 1 1 -132.093428985 -25.245934557 0
289 1 1 -132.036370109 -25.4060728867 0
290 1 1 -132.008177493 -25.573718872 0
291 1 1 -131.990954477 -25.7428441738 0
292 1 1 -131.951111315 -25.9081091807 0
293 1 1 -131.895842484 -26.0688740908 0
294 1 1 -131.855498844 -26.2340176364 0
295 1 1 -131.79798409 -26.3939928003 0
296 1 1 -131.760053093 -26.5597071313 0
297 1 1 -131.717010957 -26.7241679914 0
298 1 1 -131.677106676 -26.8894182511 0
299 1 1 -131.65204934 -27.057561434 0
300 1 1 -131.643733325 -27.2273579119 0
301 1 1 -131.629005473 -27.3967187408 0
302 1 1 -131.618739402 -27.5664084806 0
303 1 1 -131.612053633 -27.7362769606 0
304 1 1 -131.578576621 -27.9029481629 0
305 1 1 -131.539295692 -28.0683477052 0
306 1 1 -131.517535791 -28.2369493265 0
307 1 1 -131.498186222 -28.4058445431 0
308 1 1 -131.491628566 -28.575718017 0
309 1 1 -131.50697737 -28.7450236998 0
310 1 1 -131.547532225 -28.9101155038 0
311 1 1 -131.611072096 -29.0677945599 0
312 1 1 -131.630907776 -29.2366333759 0
313 1 1 -131.672818154 -29.4013862827 0
314 1 1 -131.706402528 -29.5680358845 0
315 1 1 -131.730272485 -29.7363517339 0
316 1 1 -131.778194649 -29.899457424 0
317 1 1 -131.812391784 -30.065982365 0
318 1 1 -131.832542119 -30.2347839171 0
319 1 1 -131.870093568 -30.4005846671 0
320 1 1 -131.894968463 -30.5687549367 0
321 1 1 -131.900198571 -30.7386744647 0
322 1 1 -131.907304586 -30.9085258837 0
323 1 1 -131.912309569 -31.0784521917 0
324 1 1 -131.924648735 -31.2480037915 0
325 1 1 -131.942946355 -31.4170162085 0
326 1 1 -131.970053654 -31.5848411003 0
327 1 1 -131.994914822 -31.7530133999 0
328 1 1 -132.018549119 -31.9213625015 0
329 1 1 -132.048999371 -32.0886131581 0
330 1 1 -132.09334801 -32.252726528 0
331 1 1 -132.132498009 -32.4181571105 0
332 1 1 -132.164699142 -32.5850795088 0
333 1 1 -132.180940935 -32.7543018599 0
334 1 1 -132.20105774 -32.9231074113 0
335 1 1 -132.215735018 -33.0924726306 0
336 1 1 -132.215110211 -33.2624714825 0
337 1 1 -132.204444413 -33.4321365666 0
338 1 1 -132.185109296 -33.6010334382 0
339 1 1 -132.167233154 -33.7700909536 0
340 1 1 -132.164109479 -33.9400622531 0
341 1 1 -132.15007372 -34.1094818431 0
342 1 1 -132.136021206 -34.2789000442 0
343 1 1 -132.135388721 -34.4488988676 0
344 1 1 -132.154009341 -34.6178760037 0
345 1 1 -132.174847931 -34.786593973 0
346 1 1 -132.231066458 -34.947029247 0
347 1 1 -132.288911715 -35.1068852017 0
348 1 1 -132.345594963 -35.2671568755 0
349 1 1 -132.40534507 -35.4263106525 0
350 1 1 -132.458698026 -35.5877215011 0
351 1 1 -132.521905313 -35.7455341716 0
352 1 1 -132.563085673 -35.9104710622 0
353 1 1 -132.601859078 -36.0759903152 0
354 1 1 -132.637846683 -36.2421375157 0
355 1 1 -132.664327686 -36.4100623695 0
356 1 1 -132.69223648 -36.5777558375 0
357 1 1 -132.67375638 -36.7467483991 0
358 1 1 -132.647858796 -36.9147642173 0
359 1 1 -132.626161926 -37.0833739615 0
360 1 1 -132.604153442 -37.2519433141 0
361 1 1 -132.554620854 -37.4145671829 0
362 1 1 -132.504905085 -37.5771351451 0
363 1 1 -132.451017189 -37.7383681895 0
364 1 1 -132.380903199 -37.8932359667 0
365 1 1 -132.305552738 -38.0456246408 0
366 1 1 -132.200554071 -38.1793231077 0
367 1 1 -132.088648463 -38.3072962882 0
368 1 1 -131.974050196 -38.4328639473 0
369 1 1 -131.865604153 -38.5637816915 0
370 1 1 -131.764828808 -38.7006916252 0
371 1 1 -131.669289764 -38.8413056043 0
372 1 1 -131.586259101 -38.989649492 0
373 1 1 -131.496477563 -39.1340076418 0
374 1 1 -131.393551988 -39.2693085136 0
375 1 1 -131.287349266 -39.4020525602 0
376 1 1 -131.182864254 -39.5361528298 0
377 1 1 -131.077529085 -39.6695863416 0
378 1 1 -130.979451644 -39.8084417184 0
379 1 1 -130.87942309 -39.9458982142 0
380 1 1 -130.794666458 -40.0932627736 0
381 1 1 -130.701851542 -40.2356895666 0
382 1 1 -130.623409641 -40.3865102156 0
383 1 1 -130.545525468 -40.5376196319 0
384 1 1 -130.45808914 -40.6834101958 0
385 1 1 -130.374215545 -40.8312791244 0
386 1 1 -130.283300921 -40.9749263698 0
387 1 1 -130.19907142 -41.1225928563 0
388 1 1 -130.142817931 -41.2830158749 0
389 1 1 -130.061840471 -41.432490458 0
390 1 1 -129.962102027 -41.5701576034 0
391 1 1 -129.877389236 -41.717547369 0
392 1 1 -129.780799092 -41.8574414149 0
393 1 1 -129.711626895 -42.0127321328 0
394 1 1 -129.654458027 -42.1728312291 0
395 1 1 -129.585554292 -42.3282412519 0
396 1 1 -129.556058904 -42.4956629413 0
397 1 1 -129.529690802 -42.6636055602 0
398 1 1 -129.471089227 -42.8231858076 0
399 1 1 -129.434620539 -42.9892280758 0
400 1 1 -129.407733252 -43.1570883564 0
401 1 1 -129.364268341 -43.3214379883 0
402 1 1 -129.297176636 -43.4776388305 0
403 1 1 -129.22117162 -43.6297020985 0
404 1 1 -129.132549622 -43.7747749823 0
405 1 1 -129.046812849 -43.9215714593 0
406 1 1 -128.962018481 -44.0689143083 0
407 1 1 -128.896350296 -44.2257189305 0
408 1 1 -128.849468697 -44.3891267506 0
409 1 1 -128.80733691 -44.5538231759 0
410 1 1 -128.743610726 -44.7114270257 0
411 1 1 -128.684963557 -44.8709905225 0
412 1 1 -128.634986426 -45.0334783266 0
413 1 1 -128.604723196 -45.200762925 0
414 1 1 -128.605655393 -45.3707603691 0
415 1 1 -128.645018875 -45.5361402841 0
416 1 1 -128.692612783 -45.699342061 0
417 1 1 -128.712089588 -45.868222652 0
418 1 1 -128.759001822 -46.03162168 0
419 1 1 -128.79841087 -46.1969907428 0
420 1 1 -128.83997797 -46.361830593 0
421 1 1 -128.853582469 -46.5312853586 0
422 1 1 -128.876117149 -46.6997851753 0
423 1 1 -128.892175825 -46.8690250019 0
424 1 1 -128.901582386 -47.0387645571 0
425 1 1 -128.920418576 -47.207717799 0
426 1 1 -128.933457193 -47.3772170452 0
427 1 1 -128.974919101 -47.5420833857 0
428 1 1 -129.018597171 -47.7063764961 0
429 1 1 -129.071432941 -47.8679573782 0
430 1 1 -129.146619446 -48.0204270127 0
431 1 1 -129.226820354 -48.170319689 0
432 1 1 -129.327973888 -48.3069504414 0
433 1 1 -129.453173015 -48.4219512183 0
434 1 1 -129.573597618 -48.5419425303 0
435 1 1 -129.687757468 -48.6679089091 0
436 1 1 -129.79854964 -48.7968472456 0
437 1 1 -129.904009034 -48.9301825984 0
438 1 1 -129.962438916 -49.0898257906 0
439 1 1 -130.034830463 -49.2436421223 0
440 1 1 -130.103197885 -49.3992888238 0
441 1 1 -130.165476101 -49.5574704404 0
442 1 1 -130.203563974 -49.7231487851 0
443 1 1 -130.247215284 -49.8874490077 0
444 1 1 -130.301978423 -50.0483868797 0
445 1 1 -130.361313344 -50.2076959099 0
446 1 1 -130.425636531 -50.3650570476 0
447 1 1 -130.501723367 -50.5170793927 0
448 1 1 -130.57905643 -50.6684715895 0
449 1 1 -130.654445844 -50.8208409969 0
450 1 1 -130.735979824 -50.9700127442 0
451 1 1 -130.814148438 -51.1209752156 0
452 1 1 -130.909799106 -51.2615132875 0
453 1 1 -131.01367489 -51.3960860244 0
454 1 1 -131.089127104 -51.5484243434 0
455 1 1 -131.169848221 -51.6980375151 0
456 1 1 -131.239550967 -51.8530908195 0
457 1 1 -131.2929388 -52.014490136 0
458 1 1 -131.360462286 -52.1705048109 0
459 1 1 -131.426997836 -52.326943363 0
460 1 1 -131.490128429 -52.4847867293 0
461 1 1 -131.568729182 -52.6355246525 0
462 1 1 -131.62123124 -52.7972142747 0
463 1 1 -131.684696204 -52.9549234956 0
464 1 1 -131.740786925 -53.1154034976 0
465 1 1 -131.797793248 -53.2755605428 0
466 1 1 -131.863635691 -53.4322920735 0
467 1 1 -131.923758446 -53.5913054514 0
468 1 1 -132.003285769 -53.7415565909 0
469 1 1 -132.063934558 -53.90037008 0
470 1 1 -132.139137503 -54.0528316066 0
471 1 1 -132.203408353 -54.2102141275 0
472 1 1 -132.247380336 -54.3744288185 0
473 1 1 -132.281934408 -54.5408800609 0
474 1 1 -132.309052788 -54.7087031624 0
475 1 1 -132.318528983 -54.8784388444 0
476 1 1 -132.321929118 -55.0484048383 0
477 1 1 -132.324060363 -55.2183914784 0
478 1 1 -132.329323337 -55.3883099915 0
479 1 1 -132.339038331 -55.558032173 0
480 1 1 -132.336196561 -55.7280084194 0
481 1 1 -132.352157457 -55.8972574956 0
482 1 1 -132.375972413 -56.0655811359 0
483 1 1 -132.372627255 -56.2355482207 0
484 1 1 -132.376403071 -56.4055062838 0
485 1 1 -132.390138052 -56.5749505233 0
486 1 1 -132.408692036 -56.743934989 0
487 1 1 -132.412465426 -56.913893106 0
488 1 1 -132.406058852 -57.0837723449 0
489 1 1 -132.387644594 -57.2527720938 0
490 1 1 -132.355262872 -57.4196595531 0
491 1 1 -132.329707026 -57.5877276903 0
492 1 1 -132.26315366 -57.7441586639 0
493 1 1 -132.195452023 -57.9000961137 0
494 1 1 -132.148572486 -58.0635045255 0
495 1 1 -132.087313985 -58.2220838308 0
496 1 1 -132.022086023 -58.3790720883 0
497 1 1 -131.961566969 -58.5379350608 0
498 1 1 -131.891076103 -58.6926316602 0
499 1 1 -131.840153536 -58.8548256556 0
500 1 1 -131.805320428 -59.0212187282 0
501 1 1 -131.785696669 -59.1900823064 0
502 1 1 -131.779847669 -59.3599816567 0
503 1 1 -131.732150178 -59.5231531902 0
504 1 1 -131.691224081 -59.6881533556 0
505 1 1 -131.657139107 -59.8547012903 0
506 1 1 -131.621154428 -60.0208491246 0
507 1 1 -131.57833386 -60.1853678134 0
508 1 1 -131.54087839 -60.3511902719 0
509 1 1 -131.503483915 -60.5170264963 0
510 1 1 -131.46959082 -60.6836135848 0
511 1 1 -131.434248309 -60.8498992034 0
512 1 1 -131.410128322 -61.0181794049 0
513 1 1 -131.377512283 -61.1850212282 0
514 1 1 -131.332803797 -61.3490369326 0
515 1 1 -131.312217231 -61.5177858386 0
516 1 1 -131.278074302 -61.684321902 0
517 1 1 -131.266623348 -61.8539358037 0
518 1 1 -131.241785869 -62.0221116035 0
519 1 1 -131.186831415 -62.1829842487 0
520 1 1 -131.136851791 -62.3454712856 0
521 1 1 -131.095594888 -62.510389047 0
522 1 1 -131.040036746 -62.6710542044 0
523 1 1 -130.984862942 -62.8318517522 0
524 1 1 -130.924110289 -62.9906255383 0
525 1 1 -130.871928455 -63.1524187897 0
526 1 1 -130.803030703 -63.3078314655 0
527 1 1 -130.737027434 -63.4644953365 0
528 1 1 -130.667327424 -63.6195498707 0
529 1 1 -130.603699343 -63.7771933522 0
530 1 1 -130.530517497 -63.9306352548 0
531 1 1 -130.433318088 -64.070106667 0
532 1 1 -130.329116443 -64.2044272431 0
533 1 1 -130.215120446 -64.3305419244 0
534 1 1 -130.115165569 -64.4680520058 0
535 1 1 -129.990880296 -64.5840398108 0
536 1 1 -129.867193527 -64.7006656361 0
537 1 1 -129.752203563 -64.8258746945 0
538 1 1 -129.644523877 -64.9574234885 0
539 1 1 -129.531936583 -65.0847973522 0
540 1 1 -129.412782261 -65.2060501772 0
541 1 1 -129.304832098 -65.3373771059 0
542 1 1 -129.183748204 -65.4567030907 0
543 1 1 -129.046341694 -65.5568002991 0
544 1 1 -128.895461604 -65.6351278059 0
545 1 1 -128.748781942 -65.7210642756 0
546 1 1 -128.613589739 -65.8241325455 0
547 1 1 -128.480774639 -65.9302463955 0
548 1 1 -128.330188199 -66.0091369785 0
549 1 1 -128.177238955 -66.0833429685 0
550 1 1 -128.014994707 -66.134105198 0
551 1 1 -127.85454152 -66.1902725788 0
552 1 1 -127.692678285 -66.242236923 0
553 1 1 -127.544457455 -66.3254870629 0
554 1 1 -127.3949104 -66.4063306042 0
555 1 1 -127.237990075 -66.4717218252 0
556 1 1 -127.074340374 -66.5177519802 0
557 1 1 -126.907435867 -66.5500457194 0
558 1 1 -126.739907095 -66.5789266905 0
559 1 1 -126.570654745 -66.563000548 0
560 1 1 -126.400719449 -66.5583106538 0
561 1 1 -126.230793515 -66.5633283167 0
562 1 1 -126.060800402 -66.5617981108 0
563 1 1 -125.893720816 -66.53042277 0
564 1 1 -125.724381585 -66.515448625 0
565 1 1 -125.555669379 -66.4945634272 0
566 1 1 -125.386759758 -66.4753400043 0
567 1 1 -125.224836639 -66.4235625624 0
568 1 1 -125.064650808 -66.3666371757 0
569 1 1 -124.909832968 -66.2964129895 0
570 1 1 -124.753117299 -66.2305328019 0
571 1 1 -124.593754239 -66.1713431478 0
572 1 1 -124.442545858 -66.0936512856 0
573 1 1 -124.303430053 -65.9959435955 0
574 1 1 -124.180182125 -65.878854107 0
575 1 1 -124.073682476 -65.7463481651 0
576 1 1 -123.964139557 -65.6163468226 0
577 1 1 -123.844232798 -65.4958380299 0
578 1 1 -123.720802453 -65.3789408538 0
579 1 1 -123.622962585 -65.2399179765 0
580 1 1 -123.528694775 -65.0984486159 0
581 1 1 -123.416586184 -64.9706532183 0
582 1 1 -123.308297016 -64.8396056844 0
583 1 1 -123.198650458 -64.7096917426 0
584 1 1 -123.095945995 -64.5742229516 0
585 1 1 -123.012879817 -64.4258989481 0
586 1 1 -122.926013231 -64.2797681971 0
587 1 1 -122.844801494 -64.1304207712 0
588 1 1 -122.772989289 -63.9763331103 0
589 1 1 -122.687835227 -63.829197847 0
590 1 1 -122.584618598 -63.6941188794 0
591 1 1 -122.457763906 -63.5809469424 0
592 1 1 -122.314265979 -63.4897968193 0
593 1 1 -122.194040264 -63.3696062316 0
594 1 1 -122.066085512 -63.2576795522 0
595 1 1 -121.948920525 -63.1345033953 0
596 1 1 -121.817210456 -63.0270210351 0
597 1 1 -121.700332891 -62.9035721193 0
598 1 1 -121.586138255 -62.7776372746 0
599 1 1 -121.474963357 -62.6490287905 0
600 1 1 -121.333937873 -62.5540982221 0
601 1 1 -121.191567252 -62.4611971662 0
602 1 1 -121.04688437 -62.3719398764 0
603 1 1 -120.900627091 -62.2852864963 0
604 1 1 -120.753865305 -62.1994903534 0
605 1 1 -120.617682104 -62.0977350796 0
606 1 1 -120.487607848 -61.988278751 0
607 1 1 -120.359019818 -61.8770801956 0
608 1 1 -120.211174087 -61.7931657174 0
609 1 1 -120.064479051 -61.7072554951 0
610 1 1 -119.90902601 -61.6384488656 0
611 1 1 -119.747439137 -61.585631421 0
612 1 1 -119.587861823 -61.5270218593 0
613 1 1 -119.431582742 -61.4601126015 0
614 1 1 -119.276207506 -61.3911304573 0
615 1 1 -119.117808754 -61.3294065942 0
616 1 1 -118.963741228 -61.2575512021 0
617 1 1 -118.819161952 -61.1681261878 0
618 1 1 -118.674558039 -61.0787410202 0
619 1 1 -118.520887667 -61.0060401484 0
620 1 1 -118.367544302 -60.932652054 0
621 1 1 -118.214430887 -60.8587854029 0
622 1 1 -118.056117077 -60.7968439969 0
623 1 1 -117.897103446 -60.7367219141 0
624 1 1 -117.744033249 -60.662765745 0
625 1 1 -117.586871318 -60.597957356 0
626 1 1 -117.42514038 -60.5455827082 0
627 1 1 -117.261569748 -60.4992723583 0
628 1 1 -117.106125018 -60.4304469571 0
629 1 1 -116.949537658 -60.3642623766 0
630 1 1 -116.790385883 -60.3045069368 0
631 1 1 -116.624993705 -60.2651950108 0
632 1 1 -116.455469885 -60.2524798878 0
633 1 1 -116.285587936 -60.2461455906 0
634 1 1 -116.115592859 -60.2448517933 0
635 1 1 -115.949753443 -60.2074714751 0
636 1 1 -115.783545296 -60.1717664106 0
637 1 1 -115.618478408 -60.1311102607 0
638 1 1 -115.460138682 -60.0692351352 0
639 1 1 -115.304442728 -60.0009799522 0
640 1 1 -115.147271019 -59.9361952784 0
641 1 1 -114.993463983 -59.8637839842 0
642 1 1 -114.838348546 -59.7942196166 0
643 1 1 -114.678469384 -59.7364385333 0
644 1 1 -114.521572643 -59.6709907488 0
645 1 1 -114.367146731 -59.5999088393 0
646 1 1 -114.218815284 -59.5168559544 0
647 1 1 -114.062142359 -59.4508741796 0
648 1 1 -113.899922125 -59.4000352599 0
649 1 1 -113.745921882 -59.3280357785 0
650 1 1 -113.605421889 -59.2323291864 0
651 1 1 -113.478374263 -59.1193738823 0
652 1 1 -113.351307671 -59.0064399136 0
653 1 1 -113.226929703 -58.8905515143 0
654 1 1 -113.097029428 -58.7808887658 0
655 1 1 -112.976607215 -58.6608950542 0
656 1 1 -112.841958026 -58.5571183918 0
657 1 1 -112.706285863 -58.4546827321 0
658 1 1 -112.57384385 -58.3481035915 0
659 1 1 -112.462994942 -58.2192140281 0
660 1 1 -112.350215177 -58.0920105512 0
661 1 1 -112.23744342 -57.9647999745 0
662 1 1 -112.115598643 -57.8462510382 0
663 1 1 -112.024540464 -57.7026947493 0
664 1 1 -111.932172422 -57.5599777399 0
665 1 1 -111.872671262 -57.4007307241 0
666 1 1 -111.816510052 -57.2402753769 0
667 1 1 -111.733375842 -57.0919894937 0
668 1 1 -111.673706887 -56.9328052741 0
669 1 1 -111.612547213 -56.7741878278 0
670 1 1 -111.550463971 -56.6159295859 0
671 1 1 -111.493119317 -56.4558933694 0
672 1 1 -111.411267839 -56.3068955992 0
673 1 1 -111.331295027 -56.1568811021 0
674 1 1 -111.272021581 -55.9975491888 0
675 1 1 -111.220848478 -55.8354340645 0
676 1 1 -111.153028203 -55.6795481756 0
677 1 1 -111.116919085 -55.5134273412 0
678 1 1 -111.087362362 -55.3460164691 0
679 1 1 -111.035316415 -55.1841794542 0
680 1 1 -110.972004853 -55.0264085883 0
681 1 1 -110.909375711 -54.868365586 0
682 1 1 -110.833324001 -54.7163256657 0
683 1 1 -110.723581193 -54.5864930192 0
684 1 1 -110.609490774 -54.4604637515 0
685 1 1 -110.475296896 -54.3560989912 0
686 1 1 -110.358835401 -54.2322574788 0
687 1 1 -110.22922726 -54.1222496173 0
688 1 1 -110.093817966 -54.0194667242 0
689 1 1 -109.955695094 -53.9203603555 0
690 1 1 -109.83690656 -53.7987491547 0
691 1 1 -109.706663305 -53.6894939741 0
692 1 1 -109.564147268 -53.5968161489 0
693 1 1 -109.415647603 -53.5140644155 0
694 1 1 -109.276657469 -53.4161780385 0
695 1 1 -109.131169345 -53.3282393916 0
696 1 1 -109.002438665 -53.2172060092 0
697 1 1 -108.869301594 -53.1114964052 0
698 1 1 -108.734587967 -53.0078034024 0
699 1 1 -108.585708159 -52.9257375583 0
700 1 1 -108.424646409 -52.8713398337 0
701 1 1 -108.258109862 -52.8371992632 0
702 1 1 -108.089926647 -52.8124120447 0
703 1 1 -107.923606802 -52.777230954 0
704 1 1 -107.76385162 -52.7191079651 0
705 1 1 -107.599789095 -52.6745715984 0
706 1 1 -107.438158723 -52.621887418 0
707 1 1 -107.272698552 -52.5828626597 0
708 1 1 -107.109468168 -52.5353669558 0
709 1 1 -106.949885281 -52.4767725692 0
710 1 1 -106.788645537 -52.4229047224 0
711 1 1 -106.632255654 -52.3562548566 0
712 1 1 -106.470458984 -52.3040836254 0
713 1 1 -106.305573123 -52.2626994136 0
714 1 1 -106.141836711 -52.2169786604 0
715 1 1 -105.978198765 -52.1709067313 0
716 1 1 -105.812904477 -52.1311852201 0
717 1 1 -105.643419804 -52.1179585265 0
718 1 1 -105.473579638 -52.1105884413 0
719 1 1 -105.305023059 -52.088482342 0
720 1 1 -105.135023077 -52.088404002 0
721 1 1 -104.965042133 -52.0858586845 0
722 1 1 -104.795184102 -52.092804866 0
723 1 1 -104.625760203 -52.1067885091 0
724 1 1 -104.45610423 -52.0959787522 0
725 1 1 -104.289561964 -52.0618660918 0
726 1 1 -104.124269591 -52.0221366137 0
727 1 1 -103.954753476 -52.0093191681 0
728 1 1 -103.785435993 -52.0245372517 0
729 1 1 -103.615632272 -52.0163704836 0
730 1 1 -103.445702405 -52.0212531335 0
731 1 1 -103.276171371 -52.0338717226 0
732 1 1 -103.106489959 -52.0442745155 0
733 1 1 -102.938056795 -52.0673020922 0
734 1 1 -102.768249031 -52.0753843742 0
735 1 1 -102.598250796 -52.0761592119 0
736 1 1 -102.428301971 -52.0719882894 0
737 1 1 -102.260133175 -52.0968731454 0
738 1 1 -102.090510204 -52.1081889613 0
739 1 1 -101.921044779 -52.121660038 0
740 1 1 -101.754837388 -52.1573686259 0
741 1 1 -101.597866935 -52.2226394229 0
742 1 1 -101.456942452 -52.3177198622 0
743 1 1 -101.309712994 -52.4027109594 0
744 1 1 -101.150809264 -52.4631229167 0
745 1 1 -100.986379184 -52.5062824926 0
746 1 1 -100.825749793 -52.561943958 0
747 1 1 -100.663850964 -52.6137973016 0
748 1 1 -100.495050849 -52.6339596725 0
749 1 1 -100.325055243 -52.6351818705 0
750 1 1 -100.155816543 -52.6191113248 0
751 1 1 -99.9887702839 -52.5875590295 0
752 1 1 -99.8272250482 -52.5346143715 0
753 1 1 -99.662106563 -52.4941682859 0