#Actin filament

66 atoms
65 bonds
64 angles

1 atom types
3 bond types
1 angle types

-500 500 xlo xhi
-500 500 ylo yhi
-0.05 0.05 zlo zhi

Masses

1 1


Atoms

1 1 1 -150 0 0
2 1 1 -147.119189126 0.83721485019 0
3 1 1 -144.231296403 1.64966523325 0
4 1 1 -141.278026292 2.17710779165 0
5 1 1 -138.283473453 2.35781001837 0
6 1 1 -135.290249662 2.15628747599 0
7 1 1 -132.312212926 1.79393792493 0
8 1 1 -129.342388662 1.36950437202 0
9 1 1 -126.516079734 0.363533276302 0
10 1 1 -123.566013034 -0.181541456485 0
11 1 1 -120.631506492 -0.804976582562 0
12 1 1 -117.636676195 -0.98102058184 0
13 1 1 -114.783684531 -1.9086188616 0
14 1 1 -112.142286717 -3.33094708883 0
15 1 1 -109.262147329 -4.17046903985 0
16 1 1 -106.413197534 -5.11040790233 0
17 1 1 -103.515606175 -5.88755931489 0
18 1 1 -100.597279091 -6.58280533729 0
19 1 1 -97.6229918024 -6.97474298772 0
20 1 1 -94.6898100226 -7.60438149257 0
21 1 1 -91.7157126797 -7.99775789636 0
22 1 1 -88.8416814395 -8.8579581231 0
23 1 1 -85.8451018442 -9.00117379769 0
24 1 1 -82.8458100924 -8.93598953942 0
25 1 1 -79.846081905 -8.97637272197 0
26 1 1 -76.84657032 -9.0305045205 0
27 1 1 -73.8601873375 -9.31601578494 0
28 1 1 -70.9012223215 -9.81051152188 0
29 1 1 -67.921168027 -10.15587568 0
30 1 1 -64.9512766589 -10.5798394303 0
31 1 1 -61.9554807787 -10.7386066957 0
32 1 1 -58.9580224315 -10.8620710902 0
33 1 1 -55.9622825771 -10.7022501766 0
34 1 1 -52.9623148333 -10.7161619174 0
35 1 1 -49.968024396 -10.901161315 0
36 1 1 -46.983478954 -11.2052805422 0
37 1 1 -44.0815905171 -11.9662296206 0
38 1 1 -41.2172134768 -12.8580503262 0
39 1 1 -38.3556416351 -13.7588314289 0
40 1 1 -35.6468505616 -15.0481920922 0
41 1 1 -32.8347730951 -16.0932855438 0
42 1 1 -30.2027146052 -17.5328230061 0
43 1 1 -27.6867440434 -19.1668034626 0
44 1 1 -25.1962612304 -20.8393749433 0
45 1 1 -22.7180091735 -22.5300158699 0
46 1 1 -20.03888782 -23.8799450433 0
47 1 1 -17.6770017271 -25.7296731542 0
48 1 1 -14.9533541604 -26.9873471708 0
49 1 1 -12.1594408256 -28.0800723319 0
50 1 1 -9.2773441648 -28.9128501162 0
51 1 1 -6.35167120636 -29.5765049514 0
52 1 1 -3.47636753097 -30.4324423173 0
53 1 1 -0.69701316182 -31.5616851125 0
54 1 1 2.1736951607 -32.4329105294 0
55 1 1 5.0982448242 -33.1014980448 0
56 1 1 8.01990660544 -33.7825945402 0
57 1 1 10.9222714504 -34.5417245073 0
58 1 1 13.7117795696 -35.645646811 0
59 1 1 16.3029991121 -37.1574607157 0
60 1 1 19.0446931058 -38.375292414 0
61 1 1 21.5249592991 -40.0629771032 0
62 1 1 23.672266102 -42.1579886769 0
63 1 1 25.6813804721 -44.3858709557 0
64 1 1 27.5127816045 -46.7619959298 0
65 1 1 29.3676732503 -49.1198290414 0
66 1 1 31.463619063 -51.2662239608 0


Bonds

0 1 1 2
1 2 2 3
2 3 3 4
3 1 4 5
4 2 5 6
5 3 6 7
6 1 7 8
7 2 8 9
8 3 9 10
9 1 10 11
10 2 11 12
11 3 12 13
12 1 13 14
13 2 14 15
14 3 15 16
15 1 16 17
16 2 17 18
17 3 18 19
18 1 19 20
19 2 20 21
20 3 21 22
21 1 22 23
22 2 23 24
23 3 24 25
24 1 25 26
25 2 26 27
26 3 27 28
27 1 28 29
28 2 29 30
29 3 30 31
30 1 31 32
31 2 32 33
32 3 33 34
33 1 34 35
34 2 35 36
35 3 36 37
36 1 37 38
37 2 38 39
38 3 39 40
39 1 40 41
40 2 41 42
41 3 42 43
42 1 43 44
43 2 44 45
44 3 45 46
45 1 46 47
46 2 47 48
47 3 48 49
48 1 49 50
49 2 50 51
50 3 51 52
51 1 52 53
52 2 53 54
53 3 54 55
54 1 55 56
55 2 56 57
56 3 57 58
57 1 58 59
58 2 59 60
59 3 60 61
60 1 61 62
61 2 62 63
62 3 63 64
63 1 64 65
64 2 65 66


Angles

1 1 1 2 3
2 1 2 3 4
3 1 3 4 5
4 1 4 5 6
5 1 5 6 7
6 1 6 7 8
7 1 7 8 9
8 1 8 9 10
9 1 9 10 11
10 1 10 11 12
11 1 11 12 13
12 1 12 13 14
13 1 13 14 15
14 1 14 15 16
15 1 15 16 17
16 1 16 17 18
17 1 17 18 19
18 1 18 19 20
19 1 19 20 21
20 1 20 21 22
21 1 21 22 23
22 1 22 23 24
23 1 23 24 25
24 1 24 25 26
25 1 25 26 27
26 1 26 27 28
27 1 27 28 29
28 1 28 29 30
29 1 29 30 31
30 1 30 31 32
31 1 31 32 33
32 1 32 33 34
33 1 33 34 35
34 1 34 35 36
35 1 35 36 37
36 1 36 37 38
37 1 37 38 39
38 1 38 39 40
39 1 39 40 41
40 1 40 41 42
41 1 41 42 43
42 1 42 43 44
43 1 43 44 45
44 1 44 45 46
45 1 45 46 47
46 1 46 47 48
47 1 47 48 49
48 1 48 49 50
49 1 49 50 51
50 1 50 51 52
51 1 51 52 53
52 1 52 53 54
53 1 53 54 55
54 1 54 55 56
55 1 55 56 57
56 1 56 57 58
57 1 57 58 59
58 1 58 59 60
59 1 59 60 61
60 1 60 61 62
61 1 61 62 63
62 1 62 63 64
63 1 63 64 65
64 1 64 65 66
