#Actin filament

6 atoms
5 bonds
4 angles

1 atom types
3 bond types
1 angle types

-500 500 xlo xhi
-500 500 ylo yhi
-0.05 0.05 zlo zhi

Masses

1 1


Atoms

1 1 1 -150 0 0
2 1 1 -118.180055395 3.38985624408 0
3 1 1 -86.239764897 1.43592613291 0
4 1 1 -54.4802026714 -2.47945472243 0
5 1 1 -22.4802064328 -2.49497006486 0
6 1 1 9.40884057007 -5.15742781125 0


Bonds

0 1 1 2
1 2 2 3
2 3 3 4
3 1 4 5
4 2 5 6


Angles

1 1 1 2 3
2 1 2 3 4
3 1 3 4 5
4 1 4 5 6
