#Actin filament

44 atoms
43 bonds
42 angles

1 atom types
3 bond types
1 angle types

-500 500 xlo xhi
-500 500 ylo yhi
-0.05 0.05 zlo zhi

Masses

1 1


Atoms

1 1 1 -150 0 0
2 1 1 -145.510615409 -0.308910976717 0
3 1 1 -141.028069665 -0.704870136897 0
4 1 1 -136.565899785 -1.28714152152 0
5 1 1 -132.335778659 -2.82209274522 0
6 1 1 -128.112176209 -4.37489097393 0
7 1 1 -123.961071529 -6.11222511984 0
8 1 1 -120.023501587 -8.29065183441 0
9 1 1 -116.060595129 -10.4226397359 0
10 1 1 -112.151675028 -12.6520664868 0
11 1 1 -108.337393178 -15.0397963658 0
12 1 1 -104.433871535 -17.2786618773 0
13 1 1 -100.98101721 -20.1644541442 0
14 1 1 -97.96091531 -23.5004674111 0
15 1 1 -94.4158347504 -26.2721823721 0
16 1 1 -91.1055505311 -29.3204635907 0
17 1 1 -88.0516983832 -32.6256091335 0
18 1 1 -84.8052694337 -35.7418085937 0
19 1 1 -82.2094251037 -39.4176203699 0
20 1 1 -79.5060853324 -43.0151131192 0
21 1 1 -76.3321317704 -46.2051003898 0
22 1 1 -72.6815627925 -48.8363256058 0
23 1 1 -68.4508384067 -50.3696133058 0
24 1 1 -64.1210634977 -51.5956023914 0
25 1 1 -60.0680824571 -53.5509398774 0
26 1 1 -56.2761612459 -55.9740233527 0
27 1 1 -52.6280409545 -58.6086425546 0
28 1 1 -49.1617785821 -61.4783159099 0
29 1 1 -45.8339527984 -64.5074371609 0
30 1 1 -42.845283316 -67.8716391056 0
31 1 1 -39.8855874785 -71.2613589391 0
32 1 1 -36.9026808596 -74.6306716439 0
33 1 1 -33.731304178 -77.8232207733 0
34 1 1 -30.5095458323 -80.9649198617 0
35 1 1 -26.8285188714 -83.5533635086 0
36 1 1 -23.3767400352 -86.4404421126 0
37 1 1 -20.3999633777 -89.8151718398 0
38 1 1 -17.5601246332 -93.3059190241 0
39 1 1 -14.3197605953 -96.4284245729 0
40 1 1 -11.3288366295 -99.7906223408 0
41 1 1 -8.96346018769 -103.618806543 0
42 1 1 -6.28974628144 -107.23837198 0
43 1 1 -3.98049010999 -111.100668697 0
44 1 1 -2.19790001225 -115.232541462 0


Bonds

0 1 1 2
1 2 2 3
2 3 3 4
3 1 4 5
4 2 5 6
5 3 6 7
6 1 7 8
7 2 8 9
8 3 9 10
9 1 10 11
10 2 11 12
11 3 12 13
12 1 13 14
13 2 14 15
14 3 15 16
15 1 16 17
16 2 17 18
17 3 18 19
18 1 19 20
19 2 20 21
20 3 21 22
21 1 22 23
22 2 23 24
23 3 24 25
24 1 25 26
25 2 26 27
26 3 27 28
27 1 28 29
28 2 29 30
29 3 30 31
30 1 31 32
31 2 32 33
32 3 33 34
33 1 34 35
34 2 35 36
35 3 36 37
36 1 37 38
37 2 38 39
38 3 39 40
39 1 40 41
40 2 41 42
41 3 42 43
42 1 43 44


Angles

1 1 1 2 3
2 1 2 3 4
3 1 3 4 5
4 1 4 5 6
5 1 5 6 7
6 1 6 7 8
7 1 7 8 9
8 1 8 9 10
9 1 9 10 11
10 1 10 11 12
11 1 11 12 13
12 1 12 13 14
13 1 13 14 15
14 1 14 15 16
15 1 15 16 17
16 1 16 17 18
17 1 17 18 19
18 1 18 19 20
19 1 19 20 21
20 1 20 21 22
21 1 21 22 23
22 1 22 23 24
23 1 23 24 25
24 1 24 25 26
25 1 25 26 27
26 1 26 27 28
27 1 27 28 29
28 1 28 29 30
29 1 29 30 31
30 1 30 31 32
31 1 31 32 33
32 1 32 33 34
33 1 33 34 35
34 1 34 35 36
35 1 35 36 37
36 1 36 37 38
37 1 37 38 39
38 1 38 39 40
39 1 39 40 41
40 1 40 41 42
41 1 41 42 43
42 1 42 43 44
