#Actin filament

5 atoms
4 bonds
3 angles

1 atom types
3 bond types
1 angle types

-500 500 xlo xhi
-500 500 ylo yhi
-0.05 0.05 zlo zhi

Masses

1 1


Atoms

1 1 1 -150 0 0
2 1 1 -112.162042368 3.50556161415 0
3 1 1 -75.1367434258 12.057008173 0
4 1 1 -37.3946414954 16.4767074696 0
5 1 1 0.023328907987 23.1020746967 0


Bonds

0 1 1 2
1 2 2 3
2 3 3 4
3 1 4 5


Angles

1 1 1 2 3
2 1 2 3 4
3 1 3 4 5
