#Actin filament

3 atoms
2 bonds
1 angles

1 atom types
3 bond types
1 angle types

-500 500 xlo xhi
-500 500 ylo yhi
-0.05 0.05 zlo zhi

Masses

1 1


Atoms

1 1 1 -150 0 0
2 1 1 -94.040351168 -2.12548879079 0
3 1 1 -38.4488418868 4.62611071112 0


Bonds

0 1 1 2
1 2 2 3


Angles

1 1 1 2 3
