#Actin filament

6 atoms
5 bonds
4 angles

1 atom types
3 bond types
1 angle types

-500 500 xlo xhi
-500 500 ylo yhi
-0.05 0.05 zlo zhi

Masses

1 1


Atoms

1 1 1 -150 0 0
2 1 1 -119.068801742 2.06421275896 0
3 1 1 -88.157251908 -0.275891270992 0
4 1 1 -58.1755500655 7.60430889309 0
5 1 1 -28.6098726764 16.9247552624 0
6 1 1 0.790505117727 26.7541899137 0


Bonds

0 1 1 2
1 2 2 3
2 3 3 4
3 1 4 5
4 2 5 6


Angles

1 1 1 2 3
2 1 2 3 4
3 1 3 4 5
4 1 4 5 6
