#Actin filament

21 atoms
20 bonds
19 angles

1 atom types
3 bond types
1 angle types

-500 500 xlo xhi
-500 500 ylo yhi
-0.05 0.05 zlo zhi

Masses

1 1


Atoms

1 1 1 -150 0 0
2 1 1 -140.777293942 -0.710065473413 0
3 1 1 -131.633550849 -2.10808630371 0
4 1 1 -122.678573178 -4.4256011159 0
5 1 1 -113.787188109 -6.97624251851 0
6 1 1 -104.781119127 -9.08650825894 0
7 1 1 -96.0118328786 -12.0296560101 0
8 1 1 -87.0158725596 -14.1826069942 0
9 1 1 -78.0700217354 -16.5351063098 0
10 1 1 -69.0371730946 -18.5276286892 0
11 1 1 -59.9163089164 -20.0678678407 0
12 1 1 -51.0051972726 -22.548712308 0
13 1 1 -42.669744354 -26.5590395567 0
14 1 1 -34.5892316965 -31.0610185873 0
15 1 1 -26.2851425905 -35.1358933241 0
16 1 1 -18.2620608221 -39.73944184 0
17 1 1 -10.1873112514 -44.2517493839 0
18 1 1 -2.04529363268 -48.6415157894 0
19 1 1 6.49425330948 -52.1966020082 0
20 1 1 15.1776227086 -55.3843278244 0
21 1 1 23.7220859824 -58.9275816062 0


Bonds

0 1 1 2
1 2 2 3
2 3 3 4
3 1 4 5
4 2 5 6
5 3 6 7
6 1 7 8
7 2 8 9
8 3 9 10
9 1 10 11
10 2 11 12
11 3 12 13
12 1 13 14
13 2 14 15
14 3 15 16
15 1 16 17
16 2 17 18
17 3 18 19
18 1 19 20
19 2 20 21


Angles

1 1 1 2 3
2 1 2 3 4
3 1 3 4 5
4 1 4 5 6
5 1 5 6 7
6 1 6 7 8
7 1 7 8 9
8 1 8 9 10
9 1 9 10 11
10 1 10 11 12
11 1 11 12 13
12 1 12 13 14
13 1 13 14 15
14 1 14 15 16
15 1 15 16 17
16 1 16 17 18
17 1 17 18 19
18 1 18 19 20
19 1 19 20 21
