#Actin filament

266 atoms
265 bonds
264 angles

1 atom types
3 bond types
1 angle types

-500 500 xlo xhi
-500 500 ylo yhi
-0.05 0.05 zlo zhi

Masses

1 1


Atoms

1 1 1 -150 0 0
2 1 1 -149.250001969 0.00171849297293 0
3 1 1 -148.501459858 0.048459352518 0
4 1 1 -147.751472836 0.0528715401175 0
5 1 1 -147.004373443 -0.0130260804593 0
6 1 1 -146.254674768 -0.0342839398731 0
7 1 1 -145.511002112 -0.131500099192 0
8 1 1 -144.764938662 -0.208242054038 0
9 1 1 -144.022424054 -0.313940005765 0
10 1 1 -143.275199197 -0.378399400321 0
11 1 1 -142.525471625 -0.398612465579 0
12 1 1 -141.776127408 -0.367255733804 0
13 1 1 -141.028221604 -0.31124762916 0
14 1 1 -140.298412128 -0.138394716643 0
15 1 1 -139.56352841 0.0114249086398 0
16 1 1 -138.81837809 0.0965777212277 0
17 1 1 -138.072691635 0.0162551845942 0
18 1 1 -137.322821275 0.0301995128265 0
19 1 1 -136.573245175 0.055412012913 0
20 1 1 -135.824558116 0.0110533847712 0
21 1 1 -135.075771362 0.0536960387243 0
22 1 1 -134.326065935 0.0747144326525 0
23 1 1 -133.576082416 0.069742302326 0
24 1 1 -132.827626902 0.0216346775845 0
25 1 1 -132.078201708 -0.00772309300191 0
26 1 1 -131.328919654 -0.0405316722498 0
27 1 1 -130.585275932 0.0569055642165 0
28 1 1 -129.845751133 0.181817820106 0
29 1 1 -129.10918879 0.323153995168 0
30 1 1 -128.397992111 0.561270109617 0
31 1 1 -127.657888325 0.682704807643 0
32 1 1 -126.907937639 0.674104310402 0
33 1 1 -126.157938323 0.673091416542 0
34 1 1 -125.410910066 0.606392213003 0
35 1 1 -124.661086199 0.590138979678 0
36 1 1 -123.916215424 0.502574552022 0
37 1 1 -123.188715014 0.320247500069 0
38 1 1 -122.450235176 0.189298927068 0
39 1 1 -121.71033934 0.0666035665204 0
40 1 1 -120.977129559 -0.0912045983 0
41 1 1 -120.269055297 -0.338451114697 0
42 1 1 -119.594031322 -0.665319028991 0
43 1 1 -118.943634827 -1.03879513125 0
44 1 1 -118.223803336 -1.24937201553 0
45 1 1 -117.506465507 -1.46829309536 0
46 1 1 -116.779169529 -1.65143391536 0
47 1 1 -116.053790417 -1.84202548172 0
48 1 1 -115.316252418 -1.97817870414 0
49 1 1 -114.585552378 -2.14722737065 0
50 1 1 -113.849645194 -2.29193609744 0
51 1 1 -113.142330966 -2.5413485735 0
52 1 1 -112.463973859 -2.86124173563 0
53 1 1 -111.739052478 -3.05356695738 0
54 1 1 -111.022770195 -3.27591733631 0
55 1 1 -110.316516422 -3.52831703739 0
56 1 1 -109.597140191 -3.74044397599 0
57 1 1 -108.896454172 -4.0079119238 0
58 1 1 -108.157026501 -4.1333978539 0
59 1 1 -107.440881018 -4.35618844335 0
60 1 1 -106.704204318 -4.49692735254 0
61 1 1 -105.962632779 -4.60905072902 0
62 1 1 -105.219430173 -4.70979737913 0
63 1 1 -104.477507567 -4.81957372344 0
64 1 1 -103.744040163 -4.97618013445 0
65 1 1 -103.00691456 -5.11454864527 0
66 1 1 -102.258651199 -5.16555789216 0
67 1 1 -101.514922865 -5.06876861455 0
68 1 1 -100.772071727 -4.9654623326 0
69 1 1 -100.032859864 -4.83871131302 0
70 1 1 -99.2829081784 -4.84722421898 0
71 1 1 -98.5340365263 -4.80609942629 0
72 1 1 -97.7861726142 -4.74953469308 0
73 1 1 -97.036185193 -4.75387842752 0
74 1 1 -96.2866682193 -4.72696549116 0
75 1 1 -95.5422209774 -4.63587046379 0
76 1 1 -94.7956027178 -4.56472853187 0
77 1 1 -94.0536081336 -4.45543975412 0
78 1 1 -93.3138936713 -4.33165561015 0
79 1 1 -92.5707639524 -4.23037273433 0
80 1 1 -91.8269464274 -4.13427128042 0
81 1 1 -91.1032088017 -3.93753834189 0
82 1 1 -90.3802323126 -3.7380264467 0
83 1 1 -89.6599455201 -3.52901224514 0
84 1 1 -88.9210102107 -3.40065879348 0
85 1 1 -88.1884349856 -3.23993063926 0
86 1 1 -87.4814461937 -2.98959716538 0
87 1 1 -86.7531497124 -2.81047643713 0
88 1 1 -86.0164157269 -2.67003771504 0
89 1 1 -85.2731539883 -2.56972825417 0
90 1 1 -84.5370220694 -2.42616712425 0
91 1 1 -83.793351563 -2.3289345277 0
92 1 1 -83.0643083643 -2.15287767762 0
93 1 1 -82.3238632745 -2.03354172727 0
94 1 1 -81.5878513501 -1.88936667 0
95 1 1 -80.8453087036 -1.7838658737 0
96 1 1 -80.1002722333 -1.69772263263 0
97 1 1 -79.3540391206 -1.62264839259 0
98 1 1 -78.6179763701 -1.478733045 0
99 1 1 -77.9004358052 -1.26047737442 0
100 1 1 -77.1742566537 -1.07295713569 0
101 1 1 -76.4726086936 -0.808022917195 0
102 1 1 -75.8349656596 -0.41316678996 0
103 1 1 -75.1828547281 -0.0426923199408 0
104 1 1 -74.5115656769 0.291778919189 0
105 1 1 -73.8401339062 0.625963564743 0
106 1 1 -73.2197526443 1.04742185428 0
107 1 1 -72.6489885365 1.53396921402 0
108 1 1 -72.0999796038 2.04493808963 0
109 1 1 -71.5682308579 2.57384571029 0
110 1 1 -71.0731144238 3.13719259872 0
111 1 1 -70.526524053 3.65074782116 0
112 1 1 -69.9826852658 4.16721599402 0
113 1 1 -69.3655471197 4.59340903557 0
114 1 1 -68.7822302027 5.06483386974 0
115 1 1 -68.1919215377 5.52747377299 0
116 1 1 -67.6133977258 6.00476843987 0
117 1 1 -66.9937907068 6.42736415919 0
118 1 1 -66.3049172512 6.72393348014 0
119 1 1 -65.6734184682 7.12854352337 0
120 1 1 -65.0575568322 7.55657908884 0
121 1 1 -64.3581532753 7.82738282696 0
122 1 1 -63.6349012472 8.0258935418 0
123 1 1 -62.9231421369 8.26232316955 0
124 1 1 -62.2019042383 8.46803144266 0
125 1 1 -61.4823540011 8.67956738795 0
126 1 1 -60.7834478498 8.95165228587 0
127 1 1 -60.1762488204 9.39189010656 0
128 1 1 -59.603120013 9.87564972669 0
129 1 1 -59.0412542797 10.3724463629 0
130 1 1 -58.4884970439 10.87935803 0
131 1 1 -57.9725908357 11.4237299473 0
132 1 1 -57.5708318893 12.0570464156 0
133 1 1 -57.1242239018 12.6595755066 0
134 1 1 -56.6476329693 13.2386791959 0
135 1 1 -56.3199337922 13.9133000149 0
136 1 1 -55.9615709688 14.5721445237 0
137 1 1 -55.5758675559 15.2153652302 0
138 1 1 -55.1571046964 15.8375691096 0
139 1 1 -54.7049404258 16.435939791 0
140 1 1 -54.2841924258 17.0568029969 0
141 1 1 -53.8487338446 17.6674385872 0
142 1 1 -53.4470840023 18.300824255 0
143 1 1 -52.9451600625 18.8581144475 0
144 1 1 -52.3561788636 19.3224431537 0
145 1 1 -51.7427675621 19.753982926 0
146 1 1 -51.1125002418 20.1605085772 0
147 1 1 -50.5168068163 20.6161941516 0
148 1 1 -49.8223692165 20.8994897922 0
149 1 1 -49.1432892424 21.2178455505 0
150 1 1 -48.4437374477 21.4882661239 0
151 1 1 -47.7967634916 21.8676402138 0
152 1 1 -47.1026909835 22.1518291536 0
153 1 1 -46.3694872206 22.3096652775 0
154 1 1 -45.6479881255 22.5144555501 0
155 1 1 -44.9270671458 22.7212717514 0
156 1 1 -44.2273051789 22.9911480001 0
157 1 1 -43.4980777699 23.1664402876 0
158 1 1 -42.7876563505 23.4068595189 0
159 1 1 -42.0626011044 23.5986794607 0
160 1 1 -41.360819866 23.8632604379 0
161 1 1 -40.6221538081 23.9931544522 0
162 1 1 -39.885813228 24.1356414691 0
163 1 1 -39.1763063342 24.3787463185 0
164 1 1 -38.5226583339 24.7465020684 0
165 1 1 -37.8486322704 25.0754228274 0
166 1 1 -37.2063444238 25.4626776818 0
167 1 1 -36.5881360189 25.8873167851 0
168 1 1 -35.9032869143 26.1930645633 0
169 1 1 -35.272142159 26.5982266269 0
170 1 1 -34.6656718789 27.0394678301 0
171 1 1 -34.1572062257 27.5907959353 0
172 1 1 -33.7293540528 28.2067849921 0
173 1 1 -33.3463840384 28.8516368884 0
174 1 1 -33.0407276115 29.5365267691 0
175 1 1 -32.7888468085 30.2429657693 0
176 1 1 -32.6305133087 30.976062286 0
177 1 1 -32.5516612405 31.7219056686 0
178 1 1 -32.4370317105 32.4630939516 0
179 1 1 -32.2761087354 33.1956264056 0
180 1 1 -32.2888467007 33.9455182273 0
181 1 1 -32.2124633785 34.6916184807 0
182 1 1 -32.0932926866 35.4320901859 0
183 1 1 -32.0026844089 36.1765968279 0
184 1 1 -31.8561090781 36.9121345036 0
185 1 1 -31.7509567421 37.6547265761 0
186 1 1 -31.7832208024 38.4040322751 0
187 1 1 -31.8536322631 39.1507197774 0
188 1 1 -31.8455612714 39.9006763489 0
189 1 1 -31.7053989301 40.6374629653 0
190 1 1 -31.6078009444 41.3810856069 0
191 1 1 -31.5742587477 42.1303351789 0
192 1 1 -31.514770282 42.8779722047 0
193 1 1 -31.6080605978 43.6221475315 0
194 1 1 -31.7131063458 44.3647546893 0
195 1 1 -31.9687038824 45.0698574473 0
196 1 1 -32.3091428746 45.7381397922 0
197 1 1 -32.7152482354 46.3686780035 0
198 1 1 -33.1409918542 46.9861262775 0
199 1 1 -33.5834412029 47.5917157208 0
200 1 1 -34.0010954527 48.2146642962 0
201 1 1 -34.3708420903 48.867188184 0
202 1 1 -34.7377873267 49.5212915347 0
203 1 1 -35.0998845083 50.1780910712 0
204 1 1 -35.601418456 50.7357322634 0
205 1 1 -36.0096099254 51.3649219997 0
206 1 1 -36.4211934501 51.9918980776 0
207 1 1 -36.8285568534 52.6216242543 0
208 1 1 -37.2262045524 53.2575301494 0
209 1 1 -37.4727051831 53.9658644202 0
210 1 1 -37.7611384336 54.6581838984 0
211 1 1 -38.0440441439 55.3527804425 0
212 1 1 -38.1981369834 56.0867800317 0
213 1 1 -38.4743172461 56.7840780042 0
214 1 1 -38.7287145273 57.4896146959 0
215 1 1 -38.9399606219 58.209250081 0
216 1 1 -39.2334310819 58.8994493921 0
217 1 1 -39.5029656172 59.5993430514 0
218 1 1 -39.7046189081 60.3217251873 0
219 1 1 -39.9886660695 61.0158557299 0
220 1 1 -40.2300933676 61.7259352041 0
221 1 1 -40.4716389933 62.4359744359 0
222 1 1 -40.7181989437 63.1442880605 0
223 1 1 -40.871353179 63.8784840699 0
224 1 1 -41.1017174959 64.5922293196 0
225 1 1 -41.3358977929 65.3047316624 0
226 1 1 -41.5730703102 66.0162435717 0
227 1 1 -41.7711934683 66.7396018607 0
228 1 1 -41.9521265136 67.4674502193 0
229 1 1 -42.0751066521 68.2072987751 0
230 1 1 -42.2384208355 68.9393018335 0
231 1 1 -42.5121594456 69.6375619379 0
232 1 1 -42.8550894357 70.3045694505 0
233 1 1 -43.2143070723 70.9629482849 0
234 1 1 -43.5603173722 71.6283630971 0
235 1 1 -43.9730393011 72.2545903796 0
236 1 1 -44.5302350618 72.756619148 0
237 1 1 -45.1384266701 73.1954846941 0
238 1 1 -45.7718072822 73.597142509 0
239 1 1 -46.3839969305 74.0304135956 0
240 1 1 -46.9991627549 74.4594485691 0
241 1 1 -47.5809516428 74.9327578653 0
242 1 1 -48.2375567161 75.2952075554 0
243 1 1 -48.9301842787 75.582900203 0
244 1 1 -49.6255126839 75.8640023356 0
245 1 1 -50.3056910859 76.1800044581 0
246 1 1 -51.0082195885 76.4425948293 0
247 1 1 -51.7240871112 76.6662769471 0
248 1 1 -52.4250365835 76.9330537027 0
249 1 1 -53.1359238234 77.1720920514 0
250 1 1 -53.8639605425 77.352265678 0
251 1 1 -54.588131809 77.547396344 0
252 1 1 -55.3362209052 77.6009005872 0
253 1 1 -56.0831501993 77.6686990361 0
254 1 1 -56.8319195957 77.7116454087 0
255 1 1 -57.5819147782 77.7143335781 0
256 1 1 -58.3306701296 77.671143026 0
257 1 1 -59.0795784058 77.7115953908 0
258 1 1 -59.8288420586 77.6783692176 0
259 1 1 -60.5788320278 77.6744902785 0
260 1 1 -61.3283857628 77.700359146 0
261 1 1 -62.0756666808 77.7641653337 0
262 1 1 -62.8256476626 77.75882427 0
263 1 1 -63.5730659043 77.8210012106 0
264 1 1 -64.3230658867 77.8208387575 0
265 1 1 -65.0730635551 77.8189686063 0
266 1 1 -65.8227789025 77.7983071 0


Bonds

0 1 1 2
1 2 2 3
2 3 3 4
3 1 4 5
4 2 5 6
5 3 6 7
6 1 7 8
7 2 8 9
8 3 9 10
9 1 10 11
10 2 11 12
11 3 12 13
12 1 13 14
13 2 14 15
14 3 15 16
15 1 16 17
16 2 17 18
17 3 18 19
18 1 19 20
19 2 20 21
20 3 21 22
21 1 22 23
22 2 23 24
23 3 24 25
24 1 25 26
25 2 26 27
26 3 27 28
27 1 28 29
28 2 29 30
29 3 30 31
30 1 31 32
31 2 32 33
32 3 33 34
33 1 34 35
34 2 35 36
35 3 36 37
36 1 37 38
37 2 38 39
38 3 39 40
39 1 40 41
40 2 41 42
41 3 42 43
42 1 43 44
43 2 44 45
44 3 45 46
45 1 46 47
46 2 47 48
47 3 48 49
48 1 49 50
49 2 50 51
50 3 51 52
51 1 52 53
52 2 53 54
53 3 54 55
54 1 55 56
55 2 56 57
56 3 57 58
57 1 58 59
58 2 59 60
59 3 60 61
60 1 61 62
61 2 62 63
62 3 63 64
63 1 64 65
64 2 65 66
65 3 66 67
66 1 67 68
67 2 68 69
68 3 69 70
69 1 70 71
70 2 71 72
71 3 72 73
72 1 73 74
73 2 74 75
74 3 75 76
75 1 76 77
76 2 77 78
77 3 78 79
78 1 79 80
79 2 80 81
80 3 81 82
81 1 82 83
82 2 83 84
83 3 84 85
84 1 85 86
85 2 86 87
86 3 87 88
87 1 88 89
88 2 89 90
89 3 90 91
90 1 91 92
91 2 92 93
92 3 93 94
93 1 94 95
94 2 95 96
95 3 96 97
96 1 97 98
97 2 98 99
98 3 99 100
99 1 100 101
100 2 101 102
101 3 102 103
102 1 103 104
103 2 104 105
104 3 105 106
105 1 106 107
106 2 107 108
107 3 108 109
108 1 109 110
109 2 110 111
110 3 111 112
111 1 112 113
112 2 113 114
113 3 114 115
114 1 115 116
115 2 116 117
116 3 117 118
117 1 118 119
118 2 119 120
119 3 120 121
120 1 121 122
121 2 122 123
122 3 123 124
123 1 124 125
124 2 125 126
125 3 126 127
126 1 127 128
127 2 128 129
128 3 129 130
129 1 130 131
130 2 131 132
131 3 132 133
132 1 133 134
133 2 134 135
134 3 135 136
135 1 136 137
136 2 137 138
137 3 138 139
138 1 139 140
139 2 140 141
140 3 141 142
141 1 142 143
142 2 143 144
143 3 144 145
144 1 145 146
145 2 146 147
146 3 147 148
147 1 148 149
148 2 149 150
149 3 150 151
150 1 151 152
151 2 152 153
152 3 153 154
153 1 154 155
154 2 155 156
155 3 156 157
156 1 157 158
157 2 158 159
158 3 159 160
159 1 160 161
160 2 161 162
161 3 162 163
162 1 163 164
163 2 164 165
164 3 165 166
165 1 166 167
166 2 167 168
167 3 168 169
168 1 169 170
169 2 170 171
170 3 171 172
171 1 172 173
172 2 173 174
173 3 174 175
174 1 175 176
175 2 176 177
176 3 177 178
177 1 178 179
178 2 179 180
179 3 180 181
180 1 181 182
181 2 182 183
182 3 183 184
183 1 184 185
184 2 185 186
185 3 186 187
186 1 187 188
187 2 188 189
188 3 189 190
189 1 190 191
190 2 191 192
191 3 192 193
192 1 193 194
193 2 194 195
194 3 195 196
195 1 196 197
196 2 197 198
197 3 198 199
198 1 199 200
199 2 200 201
200 3 201 202
201 1 202 203
202 2 203 204
203 3 204 205
204 1 205 206
205 2 206 207
206 3 207 208
207 1 208 209
208 2 209 210
209 3 210 211
210 1 211 212
211 2 212 213
212 3 213 214
213 1 214 215
214 2 215 216
215 3 216 217
216 1 217 218
217 2 218 219
218 3 219 220
219 1 220 221
220 2 221 222
221 3 222 223
222 1 223 224
223 2 224 225
224 3 225 226
225 1 226 227
226 2 227 228
227 3 228 229
228 1 229 230
229 2 230 231
230 3 231 232
231 1 232 233
232 2 233 234
233 3 234 235
234 1 235 236
235 2 236 237
236 3 237 238
237 1 238 239
238 2 239 240
239 3 240 241
240 1 241 242
241 2 242 243
242 3 243 244
243 1 244 245
244 2 245 246
245 3 246 247
246 1 247 248
247 2 248 249
248 3 249 250
249 1 250 251
250 2 251 252
251 3 252 253
252 1 253 254
253 2 254 255
254 3 255 256
255 1 256 257
256 2 257 258
257 3 258 259
258 1 259 260
259 2 260 261
260 3 261 262
261 1 262 263
262 2 263 264
263 3 264 265
264 1 265 266


Angles

1 1 1 2 3
2 1 2 3 4
3 1 3 4 5
4 1 4 5 6
5 1 5 6 7
6 1 6 7 8
7 1 7 8 9
8 1 8 9 10
9 1 9 10 11
10 1 10 11 12
11 1 11 12 13
12 1 12 13 14
13 1 13 14 15
14 1 14 15 16
15 1 15 16 17
16 1 16 17 18
17 1 17 18 19
18 1 18 19 20
19 1 19 20 21
20 1 20 21 22
21 1 21 22 23
22 1 22 23 24
23 1 23 24 25
24 1 24 25 26
25 1 25 26 27
26 1 26 27 28
27 1 27 28 29
28 1 28 29 30
29 1 29 30 31
30 1 30 31 32
31 1 31 32 33
32 1 32 33 34
33 1 33 34 35
34 1 34 35 36
35 1 35 36 37
36 1 36 37 38
37 1 37 38 39
38 1 38 39 40
39 1 39 40 41
40 1 40 41 42
41 1 41 42 43
42 1 42 43 44
43 1 43 44 45
44 1 44 45 46
45 1 45 46 47
46 1 46 47 48
47 1 47 48 49
48 1 48 49 50
49 1 49 50 51
50 1 50 51 52
51 1 51 52 53
52 1 52 53 54
53 1 53 54 55
54 1 54 55 56
55 1 55 56 57
56 1 56 57 58
57 1 57 58 59
58 1 58 59 60
59 1 59 60 61
60 1 60 61 62
61 1 61 62 63
62 1 62 63 64
63 1 63 64 65
64 1 64 65 66
65 1 65 66 67
66 1 66 67 68
67 1 67 68 69
68 1 68 69 70
69 1 69 70 71
70 1 70 71 72
71 1 71 72 73
72 1 72 73 74
73 1 73 74 75
74 1 74 75 76
75 1 75 76 77
76 1 76 77 78
77 1 77 78 79
78 1 78 79 80
79 1 79 80 81
80 1 80 81 82
81 1 81 82 83
82 1 82 83 84
83 1 83 84 85
84 1 84 85 86
85 1 85 86 87
86 1 86 87 88
87 1 87 88 89
88 1 88 89 90
89 1 89 90 91
90 1 90 91 92
91 1 91 92 93
92 1 92 93 94
93 1 93 94 95
94 1 94 95 96
95 1 95 96 97
96 1 96 97 98
97 1 97 98 99
98 1 98 99 100
99 1 99 100 101
100 1 100 101 102
101 1 101 102 103
102 1 102 103 104
103 1 103 104 105
104 1 104 105 106
105 1 105 106 107
106 1 106 107 108
107 1 107 108 109
108 1 108 109 110
109 1 109 110 111
110 1 110 111 112
111 1 111 112 113
112 1 112 113 114
113 1 113 114 115
114 1 114 115 116
115 1 115 116 117
116 1 116 117 118
117 1 117 118 119
118 1 118 119 120
119 1 119 120 121
120 1 120 121 122
121 1 121 122 123
122 1 122 123 124
123 1 123 124 125
124 1 124 125 126
125 1 125 126 127
126 1 126 127 128
127 1 127 128 129
128 1 128 129 130
129 1 129 130 131
130 1 130 131 132
131 1 131 132 133
132 1 132 133 134
133 1 133 134 135
134 1 134 135 136
135 1 135 136 137
136 1 136 137 138
137 1 137 138 139
138 1 138 139 140
139 1 139 140 141
140 1 140 141 142
141 1 141 142 143
142 1 142 143 144
143 1 143 144 145
144 1 144 145 146
145 1 145 146 147
146 1 146 147 148
147 1 147 148 149
148 1 148 149 150
149 1 149 150 151
150 1 150 151 152
151 1 151 152 153
152 1 152 153 154
153 1 153 154 155
154 1 154 155 156
155 1 155 156 157
156 1 156 157 158
157 1 157 158 159
158 1 158 159 160
159 1 159 160 161
160 1 160 161 162
161 1 161 162 163
162 1 162 163 164
163 1 163 164 165
164 1 164 165 166
165 1 165 166 167
166 1 166 167 168
167 1 167 168 169
168 1 168 169 170
169 1 169 170 171
170 1 170 171 172
171 1 171 172 173
172 1 172 173 174
173 1 173 174 175
174 1 174 175 176
175 1 175 176 177
176 1 176 177 178
177 1 177 178 179
178 1 178 179 180
179 1 179 180 181
180 1 180 181 182
181 1 181 182 183
182 1 182 183 184
183 1 183 184 185
184 1 184 185 186
185 1 185 186 187
186 1 186 187 188
187 1 187 188 189
188 1 188 189 190
189 1 189 190 191
190 1 190 191 192
191 1 191 192 193
192 1 192 193 194
193 1 193 194 195
194 1 194 195 196
195 1 195 196 197
196 1 196 197 198
197 1 197 198 199
198 1 198 199 200
199 1 199 200 201
200 1 200 201 202
201 1 201 202 203
202 1 202 203 204
203 1 203 204 205
204 1 204 205 206
205 1 205 206 207
206 1 206 207 208
207 1 207 208 209
208 1 208 209 210
209 1 209 210 211
210 1 210 211 212
211 1 211 212 213
212 1 212 213 214
213 1 213 214 215
214 1 214 215 216
215 1 215 216 217
216 1 216 217 218
217 1 217 218 219
218 1 218 219 220
219 1 219 220 221
220 1 220 221 222
221 1 221 222 223
222 1 222 223 224
223 1 223 224 225
224 1 224 225 226
225 1 225 226 227
226 1 226 227 228
227 1 227 228 229
228 1 228 229 230
229 1 229 230 231
230 1 230 231 232
231 1 231 232 233
232 1 232 233 234
233 1 233 234 235
234 1 234 235 236
235 1 235 236 237
236 1 236 237 238
237 1 237 238 239
238 1 238 239 240
239 1 239 240 241
240 1 240 241 242
241 1 241 242 243
242 1 242 243 244
243 1 243 244 245
244 1 244 245 246
245 1 245 246 247
246 1 246 247 248
247 1 247 248 249
248 1 248 249 250
249 1 249 250 251
250 1 250 251 252
251 1 251 252 253
252 1 252 253 254
253 1 253 254 255
254 1 254 255 256
255 1 255 256 257
256 1 256 257 258
257 1 257 258 259
258 1 258 259 260
259 1 259 260 261
260 1 260 261 262
261 1 261 262 263
262 1 262 263 264
263 1 263 264 265
264 1 264 265 266
