#Actin filament

28 atoms
27 bonds
26 angles

1 atom types
3 bond types
1 angle types

-500 500 xlo xhi
-500 500 ylo yhi
-0.05 0.05 zlo zhi

Masses

1 1


Atoms

1 1 1 -150 0 0
2 1 1 -143.026147853 -0.604471862962 0
3 1 1 -136.19879027 -2.14952475396 0
4 1 1 -129.543389072 -4.31877229527 0
5 1 1 -123.07011122 -6.98273059923 0
6 1 1 -116.559460621 -9.55400047514 0
7 1 1 -110.514152458 -13.0830583125 0
8 1 1 -104.063317951 -15.8009130111 0
9 1 1 -97.1863940041 -17.107786007 0
10 1 1 -90.2786317391 -18.2404026632 0
11 1 1 -83.2818461447 -18.4525142994 0
12 1 1 -76.2845105175 -18.6456311558 0
13 1 1 -69.3120510553 -19.2659609454 0
14 1 1 -62.3217568136 -18.897468863 0
15 1 1 -55.3223626636 -18.8053736288 0
16 1 1 -48.3225375409 -18.854853436 0
17 1 1 -41.3438001748 -19.4000366854 0
18 1 1 -34.3553839039 -19.8025761547 0
19 1 1 -27.3557974666 -19.8786662791 0
20 1 1 -20.4754991573 -18.5896762964 0
21 1 1 -13.4806513903 -18.8581995085 0
22 1 1 -6.48934406437 -18.5094562289 0
23 1 1 0.503575853595 -18.8242117228 0
24 1 1 7.37989591226 -20.134258459 0
25 1 1 13.9587734269 -22.5255699499 0
26 1 1 20.6244789564 -24.6629444595 0
27 1 1 27.4206274418 -26.3399554211 0
28 1 1 34.2803370658 -27.7343670799 0


Bonds

0 1 1 2
1 2 2 3
2 3 3 4
3 1 4 5
4 2 5 6
5 3 6 7
6 1 7 8
7 2 8 9
8 3 9 10
9 1 10 11
10 2 11 12
11 3 12 13
12 1 13 14
13 2 14 15
14 3 15 16
15 1 16 17
16 2 17 18
17 3 18 19
18 1 19 20
19 2 20 21
20 3 21 22
21 1 22 23
22 2 23 24
23 3 24 25
24 1 25 26
25 2 26 27
26 3 27 28


Angles

1 1 1 2 3
2 1 2 3 4
3 1 3 4 5
4 1 4 5 6
5 1 5 6 7
6 1 6 7 8
7 1 7 8 9
8 1 8 9 10
9 1 9 10 11
10 1 10 11 12
11 1 11 12 13
12 1 12 13 14
13 1 13 14 15
14 1 14 15 16
15 1 15 16 17
16 1 16 17 18
17 1 17 18 19
18 1 18 19 20
19 1 19 20 21
20 1 20 21 22
21 1 21 22 23
22 1 22 23 24
23 1 23 24 25
24 1 24 25 26
25 1 25 26 27
26 1 26 27 28
