#Actin filament

200 atoms
199 bonds
198 angles

1 atom types
3 bond types
1 angle types

-500 500 xlo xhi
-500 500 ylo yhi
-0.05 0.05 zlo zhi

Masses

1 1


Atoms

1 1 1 -150 0 0
2 1 1 -149.000584316 0.0341802791626 0
3 1 1 -148.000584601 0.0334253128373 0
4 1 1 -147.003719495 0.112545217469 0
5 1 1 -146.017882763 0.280253113218 0
6 1 1 -145.059236916 0.564854836082 0
7 1 1 -144.091284371 0.815988005695 0
8 1 1 -143.184688345 1.23798758732 0
9 1 1 -142.303659172 1.71104952354 0
10 1 1 -141.426423459 2.19110942017 0
11 1 1 -140.596192106 2.7485283827 0
12 1 1 -139.729895032 3.24805754179 0
13 1 1 -138.822512482 3.66836327191 0
14 1 1 -137.94423048 4.14650626958 0
15 1 1 -137.043743775 4.58138980871 0
16 1 1 -136.194352771 5.10915388793 0
17 1 1 -135.364239791 5.6667491182 0
18 1 1 -134.49742383 6.16537732508 0
19 1 1 -133.664503891 6.71877083406 0
20 1 1 -132.896358995 7.35904688275 0
21 1 1 -132.115868676 7.98421475019 0
22 1 1 -131.454510182 8.7342847082 0
23 1 1 -130.80053263 9.49079866125 0
24 1 1 -130.13440374 10.2366353072 0
25 1 1 -129.478485444 10.9914672013 0
26 1 1 -128.711093725 11.6326457647 0
27 1 1 -127.877737513 12.1853820709 0
28 1 1 -126.999976753 12.6644812749 0
29 1 1 -126.170419774 13.2229033549 0
30 1 1 -125.393617406 13.8526478123 0
31 1 1 -124.615445428 14.4806990614 0
32 1 1 -123.961790033 15.2374913873 0
33 1 1 -123.464697003 16.1051886388 0
34 1 1 -122.880603039 16.9168746867 0
35 1 1 -122.376873918 17.7807363496 0
36 1 1 -121.862647344 18.638390727 0
37 1 1 -121.472229442 19.5590284745 0
38 1 1 -121.073447457 20.4760742357 0
39 1 1 -120.759185815 21.4254106463 0
40 1 1 -120.414040876 22.3639600435 0
41 1 1 -120.089494976 23.3098299916 0
42 1 1 -119.804619592 24.2683945515 0
43 1 1 -119.58389535 25.2437308058 0
44 1 1 -119.183174804 26.1599311354 0
45 1 1 -118.651614383 27.0069515124 0
46 1 1 -118.002075306 27.7672797227 0
47 1 1 -117.56613167 28.6672536925 0
48 1 1 -117.1938413 29.5953700002 0
49 1 1 -116.81325964 30.5201173168 0
50 1 1 -116.259632208 31.3528817892 0
51 1 1 -115.7724464 32.2261801283 0
52 1 1 -115.236771794 33.0706046167 0
53 1 1 -114.617508806 33.8557882581 0
54 1 1 -113.985838747 34.6310256004 0
55 1 1 -113.343443405 35.3973990242 0
56 1 1 -112.782940417 36.2255514258 0
57 1 1 -112.135204072 36.9874159985 0
58 1 1 -111.545318256 37.7949026703 0
59 1 1 -110.837822726 38.5016204886 0
60 1 1 -110.159149186 39.2360605653 0
61 1 1 -109.618910806 40.0775725926 0
62 1 1 -109.057471708 40.9050906524 0
63 1 1 -108.437623433 41.6898123328 0
64 1 1 -107.834083975 42.4871454645 0
65 1 1 -107.27118435 43.3136707291 0
66 1 1 -106.88824762 44.2374453015 0
67 1 1 -106.437864963 45.1302809316 0
68 1 1 -106.17057625 46.0938974235 0
69 1 1 -105.931108647 47.0648017789 0
70 1 1 -105.837184948 48.0603811774 0
71 1 1 -105.674529588 49.0470641224 0
72 1 1 -105.491513421 50.030174026 0
73 1 1 -105.33949975 51.018552417 0
74 1 1 -105.153252394 52.0010553038 0
75 1 1 -105.220737742 52.9987755691 0
76 1 1 -105.223716552 53.9987711324 0
77 1 1 -105.208525419 54.9986557405 0
78 1 1 -105.040573187 55.9844508754 0
79 1 1 -104.941908809 56.9795716422 0
80 1 1 -104.829760914 57.9732631686 0
81 1 1 -104.682229482 58.9623205363 0
82 1 1 -104.632231003 59.9610698302 0
83 1 1 -104.579535909 60.9596804786 0
84 1 1 -104.292084372 61.9174756621 0
85 1 1 -104.188722855 62.9121195163 0
86 1 1 -104.134610175 63.9106543519 0
87 1 1 -104.07402676 64.9088174898 0
88 1 1 -104.016419127 65.9071567911 0
89 1 1 -104.060308108 66.9061932055 0
90 1 1 -104.255304558 67.8869971536 0
91 1 1 -104.44652846 68.8685435964 0
92 1 1 -104.688866377 69.8387355021 0
93 1 1 -105.014962607 70.7840720819 0
94 1 1 -105.287215398 71.7462978441 0
95 1 1 -105.618025547 72.6899951714 0
96 1 1 -105.850664575 73.6625583224 0
97 1 1 -106.308801186 74.5514401173 0
98 1 1 -106.758687595 75.4445259021 0
99 1 1 -107.136859529 76.3702612792 0
100 1 1 -107.682244503 77.2084469567 0
101 1 1 -108.303199004 77.9922935668 0
102 1 1 -108.893308896 78.7996164979 0
103 1 1 -109.48072076 79.6089046433 0
104 1 1 -110.038921658 80.4386104689 0
105 1 1 -110.514816729 81.3181125338 0
106 1 1 -110.897056327 82.2421757834 0
107 1 1 -111.109479176 83.2193536246 0
108 1 1 -111.509690865 84.1357763458 0
109 1 1 -111.83146624 85.0825923829 0
110 1 1 -112.280201283 85.9762572311 0
111 1 1 -112.734750012 86.866979103 0
112 1 1 -113.069888894 87.8091478404 0
113 1 1 -113.342309147 88.7713262052 0
114 1 1 -113.6007234 89.7373604044 0
115 1 1 -113.831190164 90.7104406017 0
116 1 1 -113.936433909 91.7048870579 0
117 1 1 -113.895688174 92.7040566056 0
118 1 1 -113.986634734 93.69991238 0
119 1 1 -113.959706748 94.699549756 0
120 1 1 -113.907455451 95.698183724 0
121 1 1 -113.822452016 96.6945643822 0
122 1 1 -113.771282402 97.6932543594 0
123 1 1 -113.630635877 98.6833142339 0
124 1 1 -113.434266408 99.6638442088 0
125 1 1 -113.263759854 100.649200751 0
126 1 1 -113.244028045 101.64900606 0
127 1 1 -113.293360799 102.647788458 0
128 1 1 -113.369715362 103.644869187 0
129 1 1 -113.519193717 104.633634186 0
130 1 1 -113.521300671 105.633631966 0
131 1 1 -113.7297373 106.61166784 0
132 1 1 -113.871836245 107.601520299 0
133 1 1 -113.980757595 108.59557067 0
134 1 1 -114.115876919 109.586400003 0
135 1 1 -114.248998023 110.577499782 0
136 1 1 -114.383345757 111.568434031 0
137 1 1 -114.544425708 112.555375392 0
138 1 1 -114.741482791 113.535767409 0
139 1 1 -115.006204712 114.500092201 0
140 1 1 -115.266065167 115.46573838 0
141 1 1 -115.433899725 116.451553556 0
142 1 1 -115.723761866 117.408621965 0
143 1 1 -115.943713804 118.384132675 0
144 1 1 -116.251015337 119.335744869 0
145 1 1 -116.462219007 120.313186944 0
146 1 1 -116.634409942 121.298250536 0
147 1 1 -116.691063426 122.296644438 0
148 1 1 -116.662492304 123.2962362 0
149 1 1 -116.542454456 124.289005516 0
150 1 1 -116.337971292 125.267875597 0
151 1 1 -116.028551268 126.218801067 0
152 1 1 -115.826870566 127.19825239 0
153 1 1 -115.612887031 128.175089657 0
154 1 1 -115.471776618 129.165083522 0
155 1 1 -115.320880566 130.153633157 0
156 1 1 -115.098792565 131.128659782 0
157 1 1 -114.932735955 132.114776004 0
158 1 1 -114.829701185 133.109453759 0
159 1 1 -114.796083645 134.108888529 0
160 1 1 -114.73035321 135.106725946 0
161 1 1 -114.65734512 136.104057295 0
162 1 1 -114.66681017 137.1040125 0
163 1 1 -114.751474814 138.100422003 0
164 1 1 -114.986227657 139.072477096 0
165 1 1 -115.259184798 140.03450329 0
166 1 1 -115.551393718 140.9908578 0
167 1 1 -115.82674994 141.952200065 0
168 1 1 -116.237459138 142.863966458 0
169 1 1 -116.820304945 143.676549232 0
170 1 1 -117.379336499 144.505695613 0
171 1 1 -117.873541088 145.375041243 0
172 1 1 -118.245871387 146.303141533 0
173 1 1 -118.516263801 147.26589173 0
174 1 1 -118.714863579 148.245972405 0
175 1 1 -118.871316641 149.2336578 0
176 1 1 -119.005856002 150.22456605 0
177 1 1 -119.034680036 151.224150551 0
178 1 1 -119.025855181 152.224111611 0
179 1 1 -118.886239981 153.214317446 0
180 1 1 -118.717409119 154.199962484 0
181 1 1 -118.563528612 155.188051948 0
182 1 1 -118.551973984 156.187985191 0
183 1 1 -118.470520129 157.184662305 0
184 1 1 -118.364001182 158.178972978 0
185 1 1 -118.331326317 159.178439012 0
186 1 1 -118.16480575 160.164476993 0
187 1 1 -118.083995216 161.161206474 0
188 1 1 -118.028063894 162.159641092 0
189 1 1 -117.919516313 163.153732347 0
190 1 1 -118.009969301 164.149633074 0
191 1 1 -118.092679717 165.146206697 0
192 1 1 -118.179138571 166.14246212 0
193 1 1 -118.211288387 167.141945181 0
194 1 1 -118.159089992 168.140581915 0
195 1 1 -118.065680203 169.136209663 0
196 1 1 -117.891176267 170.120866139 0
197 1 1 -117.568318663 171.06731369 0
198 1 1 -117.227862507 172.007574083 0
199 1 1 -116.826224689 172.923372676 0
200 1 1 -116.418326468 173.83640008 0


Bonds

0 1 1 2
1 2 2 3
2 3 3 4
3 1 4 5
4 2 5 6
5 3 6 7
6 1 7 8
7 2 8 9
8 3 9 10
9 1 10 11
10 2 11 12
11 3 12 13
12 1 13 14
13 2 14 15
14 3 15 16
15 1 16 17
16 2 17 18
17 3 18 19
18 1 19 20
19 2 20 21
20 3 21 22
21 1 22 23
22 2 23 24
23 3 24 25
24 1 25 26
25 2 26 27
26 3 27 28
27 1 28 29
28 2 29 30
29 3 30 31
30 1 31 32
31 2 32 33
32 3 33 34
33 1 34 35
34 2 35 36
35 3 36 37
36 1 37 38
37 2 38 39
38 3 39 40
39 1 40 41
40 2 41 42
41 3 42 43
42 1 43 44
43 2 44 45
44 3 45 46
45 1 46 47
46 2 47 48
47 3 48 49
48 1 49 50
49 2 50 51
50 3 51 52
51 1 52 53
52 2 53 54
53 3 54 55
54 1 55 56
55 2 56 57
56 3 57 58
57 1 58 59
58 2 59 60
59 3 60 61
60 1 61 62
61 2 62 63
62 3 63 64
63 1 64 65
64 2 65 66
65 3 66 67
66 1 67 68
67 2 68 69
68 3 69 70
69 1 70 71
70 2 71 72
71 3 72 73
72 1 73 74
73 2 74 75
74 3 75 76
75 1 76 77
76 2 77 78
77 3 78 79
78 1 79 80
79 2 80 81
80 3 81 82
81 1 82 83
82 2 83 84
83 3 84 85
84 1 85 86
85 2 86 87
86 3 87 88
87 1 88 89
88 2 89 90
89 3 90 91
90 1 91 92
91 2 92 93
92 3 93 94
93 1 94 95
94 2 95 96
95 3 96 97
96 1 97 98
97 2 98 99
98 3 99 100
99 1 100 101
100 2 101 102
101 3 102 103
102 1 103 104
103 2 104 105
104 3 105 106
105 1 106 107
106 2 107 108
107 3 108 109
108 1 109 110
109 2 110 111
110 3 111 112
111 1 112 113
112 2 113 114
113 3 114 115
114 1 115 116
115 2 116 117
116 3 117 118
117 1 118 119
118 2 119 120
119 3 120 121
120 1 121 122
121 2 122 123
122 3 123 124
123 1 124 125
124 2 125 126
125 3 126 127
126 1 127 128
127 2 128 129
128 3 129 130
129 1 130 131
130 2 131 132
131 3 132 133
132 1 133 134
133 2 134 135
134 3 135 136
135 1 136 137
136 2 137 138
137 3 138 139
138 1 139 140
139 2 140 141
140 3 141 142
141 1 142 143
142 2 143 144
143 3 144 145
144 1 145 146
145 2 146 147
146 3 147 148
147 1 148 149
148 2 149 150
149 3 150 151
150 1 151 152
151 2 152 153
152 3 153 154
153 1 154 155
154 2 155 156
155 3 156 157
156 1 157 158
157 2 158 159
158 3 159 160
159 1 160 161
160 2 161 162
161 3 162 163
162 1 163 164
163 2 164 165
164 3 165 166
165 1 166 167
166 2 167 168
167 3 168 169
168 1 169 170
169 2 170 171
170 3 171 172
171 1 172 173
172 2 173 174
173 3 174 175
174 1 175 176
175 2 176 177
176 3 177 178
177 1 178 179
178 2 179 180
179 3 180 181
180 1 181 182
181 2 182 183
182 3 183 184
183 1 184 185
184 2 185 186
185 3 186 187
186 1 187 188
187 2 188 189
188 3 189 190
189 1 190 191
190 2 191 192
191 3 192 193
192 1 193 194
193 2 194 195
194 3 195 196
195 1 196 197
196 2 197 198
197 3 198 199
198 1 199 200


Angles

1 1 1 2 3
2 1 2 3 4
3 1 3 4 5
4 1 4 5 6
5 1 5 6 7
6 1 6 7 8
7 1 7 8 9
8 1 8 9 10
9 1 9 10 11
10 1 10 11 12
11 1 11 12 13
12 1 12 13 14
13 1 13 14 15
14 1 14 15 16
15 1 15 16 17
16 1 16 17 18
17 1 17 18 19
18 1 18 19 20
19 1 19 20 21
20 1 20 21 22
21 1 21 22 23
22 1 22 23 24
23 1 23 24 25
24 1 24 25 26
25 1 25 26 27
26 1 26 27 28
27 1 27 28 29
28 1 28 29 30
29 1 29 30 31
30 1 30 31 32
31 1 31 32 33
32 1 32 33 34
33 1 33 34 35
34 1 34 35 36
35 1 35 36 37
36 1 36 37 38
37 1 37 38 39
38 1 38 39 40
39 1 39 40 41
40 1 40 41 42
41 1 41 42 43
42 1 42 43 44
43 1 43 44 45
44 1 44 45 46
45 1 45 46 47
46 1 46 47 48
47 1 47 48 49
48 1 48 49 50
49 1 49 50 51
50 1 50 51 52
51 1 51 52 53
52 1 52 53 54
53 1 53 54 55
54 1 54 55 56
55 1 55 56 57
56 1 56 57 58
57 1 57 58 59
58 1 58 59 60
59 1 59 60 61
60 1 60 61 62
61 1 61 62 63
62 1 62 63 64
63 1 63 64 65
64 1 64 65 66
65 1 65 66 67
66 1 66 67 68
67 1 67 68 69
68 1 68 69 70
69 1 69 70 71
70 1 70 71 72
71 1 71 72 73
72 1 72 73 74
73 1 73 74 75
74 1 74 75 76
75 1 75 76 77
76 1 76 77 78
77 1 77 78 79
78 1 78 79 80
79 1 79 80 81
80 1 80 81 82
81 1 81 82 83
82 1 82 83 84
83 1 83 84 85
84 1 84 85 86
85 1 85 86 87
86 1 86 87 88
87 1 87 88 89
88 1 88 89 90
89 1 89 90 91
90 1 90 91 92
91 1 91 92 93
92 1 92 93 94
93 1 93 94 95
94 1 94 95 96
95 1 95 96 97
96 1 96 97 98
97 1 97 98 99
98 1 98 99 100
99 1 99 100 101
100 1 100 101 102
101 1 101 102 103
102 1 102 103 104
103 1 103 104 105
104 1 104 105 106
105 1 105 106 107
106 1 106 107 108
107 1 107 108 109
108 1 108 109 110
109 1 109 110 111
110 1 110 111 112
111 1 111 112 113
112 1 112 113 114
113 1 113 114 115
114 1 114 115 116
115 1 115 116 117
116 1 116 117 118
117 1 117 118 119
118 1 118 119 120
119 1 119 120 121
120 1 120 121 122
121 1 121 122 123
122 1 122 123 124
123 1 123 124 125
124 1 124 125 126
125 1 125 126 127
126 1 126 127 128
127 1 127 128 129
128 1 128 129 130
129 1 129 130 131
130 1 130 131 132
131 1 131 132 133
132 1 132 133 134
133 1 133 134 135
134 1 134 135 136
135 1 135 136 137
136 1 136 137 138
137 1 137 138 139
138 1 138 139 140
139 1 139 140 141
140 1 140 141 142
141 1 141 142 143
142 1 142 143 144
143 1 143 144 145
144 1 144 145 146
145 1 145 146 147
146 1 146 147 148
147 1 147 148 149
148 1 148 149 150
149 1 149 150 151
150 1 150 151 152
151 1 151 152 153
152 1 152 153 154
153 1 153 154 155
154 1 154 155 156
155 1 155 156 157
156 1 156 157 158
157 1 157 158 159
158 1 158 159 160
159 1 159 160 161
160 1 160 161 162
161 1 161 162 163
162 1 162 163 164
163 1 163 164 165
164 1 164 165 166
165 1 165 166 167
166 1 166 167 168
167 1 167 168 169
168 1 168 169 170
169 1 169 170 171
170 1 170 171 172
171 1 171 172 173
172 1 172 173 174
173 1 173 174 175
174 1 174 175 176
175 1 175 176 177
176 1 176 177 178
177 1 177 178 179
178 1 178 179 180
179 1 179 180 181
180 1 180 181 182
181 1 181 182 183
182 1 182 183 184
183 1 183 184 185
184 1 184 185 186
185 1 185 186 187
186 1 186 187 188
187 1 187 188 189
188 1 188 189 190
189 1 189 190 191
190 1 190 191 192
191 1 191 192 193
192 1 192 193 194
193 1 193 194 195
194 1 194 195 196
195 1 195 196 197
196 1 196 197 198
197 1 197 198 199
198 1 198 199 200
