#Actin filament

400 atoms
399 bonds
398 angles

1 atom types
3 bond types
1 angle types

-500 500 xlo xhi
-500 500 ylo yhi
-0.05 0.05 zlo zhi

Masses

1 1


Atoms

1 1 1 -150 0 0
2 1 1 -149.504282652 -0.0653016948234 0
3 1 1 -149.004396341 -0.0759635525784 0
4 1 1 -148.504570544 -0.0627661044919 0
5 1 1 -148.005358023 -0.0347150962891 0
6 1 1 -147.506754659 0.00263039021432 0
7 1 1 -147.007279664 -0.0202765833992 0
8 1 1 -146.508447961 0.0138838056734 0
9 1 1 -146.009069533 -0.0110397833708 0
10 1 1 -145.510022846 0.0198212782147 0
11 1 1 -145.01377778 0.0809836322555 0
12 1 1 -144.515488015 0.122303248271 0
13 1 1 -144.019321604 0.184100438954 0
14 1 1 -143.525294095 0.261151204646 0
15 1 1 -143.032112366 0.3434420414 0
16 1 1 -142.542472104 0.444696244942 0
17 1 1 -142.095050259 0.667886058121 0
18 1 1 -141.630458756 0.852696055713 0
19 1 1 -141.165390903 1.03630404006 0
20 1 1 -140.700011532 1.21912100238 0
21 1 1 -140.24718926 1.43113984572 0
22 1 1 -139.799833909 1.65446290628 0
23 1 1 -139.39910166 1.95348408401 0
24 1 1 -139.005471185 2.26179407348 0
25 1 1 -138.627421915 2.58902296701 0
26 1 1 -138.227609052 2.88927232137 0
27 1 1 -137.794028785 3.13828668341 0
28 1 1 -137.361621033 3.38933157105 0
29 1 1 -136.912014654 3.60808738004 0
30 1 1 -136.45508344 3.81109936514 0
31 1 1 -136.005642173 4.03019420141 0
32 1 1 -135.571416666 4.2780816948 0
33 1 1 -135.179866511 4.58902940061 0
34 1 1 -134.717774041 4.78000204123 0
35 1 1 -134.287344073 5.03442303573 0
36 1 1 -133.848526342 5.27408738256 0
37 1 1 -133.416145526 5.52517866099 0
38 1 1 -132.987929769 5.78330898729 0
39 1 1 -132.615830906 6.11728868084 0
40 1 1 -132.251887759 6.46013760636 0
41 1 1 -131.890717091 6.80590595159 0
42 1 1 -131.5235001 7.1452460195 0
43 1 1 -131.179732551 7.5083215938 0
44 1 1 -130.874864407 7.90462376982 0
45 1 1 -130.613477761 8.3308596449 0
46 1 1 -130.383083038 8.7746143873 0
47 1 1 -130.125551598 9.20319058517 0
48 1 1 -129.84677557 9.61826157484 0
49 1 1 -129.569906348 10.0346069049 0
50 1 1 -129.241657652 10.4117710519 0
51 1 1 -128.912075684 10.7877706877 0
52 1 1 -128.596619634 11.1756978465 0
53 1 1 -128.264264092 11.5492481023 0
54 1 1 -127.895359062 11.8867522929 0
55 1 1 -127.54311032 12.241605536 0
56 1 1 -127.171273574 12.5758770333 0
57 1 1 -126.855471337 12.9635224218 0
58 1 1 -126.528190413 13.3415266508 0
59 1 1 -126.196712083 13.7158555391 0
60 1 1 -125.858543624 14.0841517425 0
61 1 1 -125.564051827 14.4882242375 0
62 1 1 -125.152759516 14.7725455969 0
63 1 1 -124.825619049 15.1506713885 0
64 1 1 -124.457842217 15.4894046206 0
65 1 1 -124.154101804 15.8865717909 0
66 1 1 -123.869759992 16.2978499623 0
67 1 1 -123.627927909 16.7354767935 0
68 1 1 -123.349989427 17.1511090833 0
69 1 1 -123.102160558 17.5853680516 0
70 1 1 -122.838525834 18.0102171218 0
71 1 1 -122.570737436 18.4324603858 0
72 1 1 -122.197697273 18.7653883604 0
73 1 1 -121.773689153 19.030373482 0
74 1 1 -121.36793344 19.322541757 0
75 1 1 -120.946030916 19.5908666735 0
76 1 1 -120.511573226 19.8383470072 0
77 1 1 -120.066563973 20.0663092068 0
78 1 1 -119.626305175 20.3033159392 0
79 1 1 -119.186839442 20.5417899812 0
80 1 1 -118.758845458 20.800287854 0
81 1 1 -118.356014871 21.0964761697 0
82 1 1 -117.963093398 21.405689229 0
83 1 1 -117.543245901 21.6772183785 0
84 1 1 -117.10099782 21.9104921117 0
85 1 1 -116.682377327 22.1839091617 0
86 1 1 -116.298663428 22.5044768506 0
87 1 1 -115.84769239 22.7204053654 0
88 1 1 -115.43689021 23.0054344311 0
89 1 1 -115.012173431 23.2692822246 0
90 1 1 -114.626208537 23.5871361232 0
91 1 1 -114.213824917 23.8698723067 0
92 1 1 -113.799841072 24.1502602095 0
93 1 1 -113.391619221 24.4389727323 0
94 1 1 -112.960666644 24.692507495 0
95 1 1 -112.5418476 24.9656203086 0
96 1 1 -112.101233582 25.2019660027 0
97 1 1 -111.644861031 25.4062307675 0
98 1 1 -111.180408983 25.591390956 0
99 1 1 -110.739952635 25.8280303549 0
100 1 1 -110.312207469 26.0869397469 0
101 1 1 -109.913131732 26.3881681586 0
102 1 1 -109.536856234 26.7174351475 0
103 1 1 -109.178374246 27.0659902566 0
104 1 1 -108.80867239 27.4026214167 0
105 1 1 -108.464630366 27.7654369141 0
106 1 1 -108.085858434 28.0918290459 0
107 1 1 -107.708641967 28.4200176148 0
108 1 1 -107.341286895 28.7592081977 0
109 1 1 -106.96773812 29.0915654036 0
110 1 1 -106.558633697 29.3790259597 0
111 1 1 -106.166840202 29.6896670027 0
112 1 1 -105.773978164 29.9989555715 0
113 1 1 -105.394293016 30.3242849257 0
114 1 1 -105.009739759 30.6438452365 0
115 1 1 -104.640473398 30.9809540541 0
116 1 1 -104.296452421 31.343789509 0
117 1 1 -103.940546088 31.6949741925 0
118 1 1 -103.590907632 32.0523996394 0
119 1 1 -103.215503575 32.3826598308 0
120 1 1 -102.910217514 32.7786401597 0
121 1 1 -102.581125445 33.1550686526 0
122 1 1 -102.289742717 33.5613888536 0
123 1 1 -102.021346391 33.9832459527 0
124 1 1 -101.747935455 34.4018704386 0
125 1 1 -101.550495232 34.861236696 0
126 1 1 -101.369500597 35.3273278266 0
127 1 1 -101.190456795 35.7941718229 0
128 1 1 -100.889858163 36.1937221487 0
129 1 1 -100.580653305 36.5866500756 0
130 1 1 -100.336614302 37.0230500813 0
131 1 1 -100.136298548 37.481169715 0
132 1 1 -99.8896964312 37.9161264896 0
133 1 1 -99.7247128358 38.3881226901 0
134 1 1 -99.5018223752 38.8356937376 0
135 1 1 -99.3025104555 39.2942509953 0
136 1 1 -99.1892515142 39.7812544986 0
137 1 1 -99.0798684441 40.269143158 0
138 1 1 -99.006687619 40.7637587329 0
139 1 1 -98.9360780542 41.2587479139 0
140 1 1 -98.8446318289 41.7503143772 0
141 1 1 -98.6929725482 42.2267589832 0
142 1 1 -98.5892825714 42.7158892202 0
143 1 1 -98.4854841388 43.2049964532 0
144 1 1 -98.377275395 43.6931469093 0
145 1 1 -98.297556384 44.1867508794 0
146 1 1 -98.1876040447 44.6745115616 0
147 1 1 -98.0543385606 45.1564247392 0
148 1 1 -98.0105250829 45.6545014192 0
149 1 1 -97.922292157 46.1466548005 0
150 1 1 -97.8821581365 46.6450414581 0
151 1 1 -97.8640149686 47.1447121751 0
152 1 1 -97.8741500549 47.6446094446 0
153 1 1 -97.8690036113 48.144582958 0
154 1 1 -97.9722840763 48.6337998276 0
155 1 1 -98.0095695903 49.13240768 0
156 1 1 -98.0191719232 49.6323154667 0
157 1 1 -98.0077301753 50.132184536 0
158 1 1 -97.976183454 50.631188348 0
159 1 1 -97.976185316 51.131188348 0
160 1 1 -97.9995863285 51.6306404404 0
161 1 1 -97.9590842992 52.1289973262 0
162 1 1 -97.8066427392 52.6051922136 0
163 1 1 -97.5708679771 53.046112004 0
164 1 1 -97.3636050272 53.5011307614 0
165 1 1 -97.1000729245 53.9260434946 0
166 1 1 -96.7896128975 54.3179804431 0
167 1 1 -96.4515226874 54.686348479 0
168 1 1 -96.126250672 55.0660827492 0
169 1 1 -95.7586217693 55.404976523 0
170 1 1 -95.3692751618 55.7186789604 0
171 1 1 -94.9918868124 56.0466698653 0
172 1 1 -94.5685156038 56.3126714062 0
173 1 1 -94.1315038036 56.5556131409 0
174 1 1 -93.707628739 56.8208110475 0
175 1 1 -93.2807898777 57.0812118663 0
176 1 1 -92.8222664113 57.280601512 0
177 1 1 -92.3625127129 57.4771378617 0
178 1 1 -91.9249217179 57.7190347843 0
179 1 1 -91.4614973866 57.9067523625 0
180 1 1 -91.0163337395 58.1344129152 0
181 1 1 -90.5618704244 58.3428909601 0
182 1 1 -90.1492134935 58.6252280943 0
183 1 1 -89.7170201601 58.8766419416 0
184 1 1 -89.2459317396 59.0441999913 0
185 1 1 -88.7837715745 59.2350087485 0
186 1 1 -88.3103906583 59.3959761619 0
187 1 1 -87.8381323025 59.5602078441 0
188 1 1 -87.3467616732 59.6527005714 0
189 1 1 -86.8591008055 59.7630947658 0
190 1 1 -86.3660918056 59.8464141873 0
191 1 1 -85.8714978456 59.9197409543 0
192 1 1 -85.3917321764 60.060541887 0
193 1 1 -84.9273203064 60.2458028247 0
194 1 1 -84.4813394116 60.4718582193 0
195 1 1 -84.0046670152 60.6228000176 0
196 1 1 -83.5658560589 60.862476768 0
197 1 1 -83.0913687288 61.0201529347 0
198 1 1 -82.6071416305 61.1447487502 0
199 1 1 -82.1186059531 61.2512048067 0
200 1 1 -81.6190075258 61.2712400604 0
201 1 1 -81.1208506633 61.3141322552 0
202 1 1 -80.6331717157 61.424446552 0
203 1 1 -80.1485054659 61.5473230198 0
204 1 1 -79.6968180827 61.7617490159 0
205 1 1 -79.2699132026 62.0220415885 0
206 1 1 -78.8403802997 62.2779741681 0
207 1 1 -78.3986625025 62.5122504743 0
208 1 1 -77.9723652494 62.7735370067 0
209 1 1 -77.557627779 63.052808972 0
210 1 1 -77.1542124121 63.3482003087 0
211 1 1 -76.7502277795 63.6428126245 0
212 1 1 -76.348743437 63.9408232329 0
213 1 1 -75.9363037223 64.2234775832 0
214 1 1 -75.4849978865 64.4387054684 0
215 1 1 -75.0318065815 64.6499343515 0
216 1 1 -74.5762765912 64.856071267 0
217 1 1 -74.1156036226 65.0504431168 0
218 1 1 -73.6451278834 65.2197138432 0
219 1 1 -73.1826229451 65.4096853728 0
220 1 1 -72.7279401309 65.6176842635 0
221 1 1 -72.2654287393 65.8076400809 0
222 1 1 -71.7891728398 65.9598909208 0
223 1 1 -71.2938798758 66.0283371027 0
224 1 1 -70.8107354816 66.1570674189 0
225 1 1 -70.3204500909 66.2551502188 0
226 1 1 -69.8359334303 66.3786152166 0
227 1 1 -69.3758795093 66.5744477721 0
228 1 1 -68.9048810549 66.7422585461 0
229 1 1 -68.438539123 66.9226059958 0
230 1 1 -68.0157232199 67.1894893263 0
231 1 1 -67.5729854764 67.421832371 0
232 1 1 -67.1542676188 67.6951002904 0
233 1 1 -66.7410434001 67.9766064982 0
234 1 1 -66.2802248923 68.1706330502 0
235 1 1 -65.8041854576 68.3235593613 0
236 1 1 -65.3421672826 68.5147116722 0
237 1 1 -64.8812360674 68.7084703232 0
238 1 1 -64.4023020657 68.8520747175 0
239 1 1 -63.9701227456 69.1035126528 0
240 1 1 -63.5677409727 69.4003104102 0
241 1 1 -63.1545114132 69.6818087781 0
242 1 1 -62.7527324988 69.9794221245 0
243 1 1 -62.3271593503 70.2418863988 0
244 1 1 -61.9469145409 70.566561444 0
245 1 1 -61.5410775242 70.858616774 0
246 1 1 -61.1519365545 71.1725742644 0
247 1 1 -60.7480206226 71.4672807624 0
248 1 1 -60.3384190255 71.7540324523 0
249 1 1 -59.9766679744 72.0991935408 0
250 1 1 -59.5705140744 72.3908080286 0
251 1 1 -59.155630567 72.6698629968 0
252 1 1 -58.7287093221 72.9301287277 0
253 1 1 -58.2826070219 73.155944444 0
254 1 1 -57.8477447247 73.4027131261 0
255 1 1 -57.4329546344 73.6819069316 0
256 1 1 -57.0148342851 73.9560882101 0
257 1 1 -56.6141423424 74.2551633964 0
258 1 1 -56.264378285 74.6124659351 0
259 1 1 -55.89079075 74.9447795727 0
260 1 1 -55.4694745451 75.2140241743 0
261 1 1 -55.0137571395 75.4197464293 0
262 1 1 -54.596152959 75.6947132426 0
263 1 1 -54.1837670431 75.9774460782 0
264 1 1 -53.7945732751 76.2913381153 0
265 1 1 -53.4167677346 76.6188483801 0
266 1 1 -53.028210044 76.9335274565 0
267 1 1 -52.6676033623 77.2798839508 0
268 1 1 -52.3172192748 77.6365784856 0
269 1 1 -52.0156663946 78.0354091019 0
270 1 1 -51.7356348412 78.4496340759 0
271 1 1 -51.4341399618 78.8485085395 0
272 1 1 -51.1498328899 79.2598107263 0
273 1 1 -50.8462043916 79.6570634607 0
274 1 1 -50.576262523 80.0779332595 0
275 1 1 -50.337950066 80.5174866384 0
276 1 1 -50.1432683327 80.9780287349 0
277 1 1 -49.9556516073 81.4414939055 0
278 1 1 -49.7887523687 81.9128161352 0
279 1 1 -49.6327363657 82.3878519305 0
280 1 1 -49.4519789591 82.8540351133 0
281 1 1 -49.3811114336 83.348987428 0
282 1 1 -49.2017945355 83.815726595 0
283 1 1 -48.9618243212 84.254377135 0
284 1 1 -48.7096765833 84.6861427176 0
285 1 1 -48.4136655279 85.0891035781 0
286 1 1 -48.0760567801 85.4579129237 0
287 1 1 -47.7426221019 85.8305002496 0
288 1 1 -47.3723773566 86.1665342189 0
289 1 1 -46.9647622369 86.4561027155 0
290 1 1 -46.5313816172 86.7054643775 0
291 1 1 -46.1102746094 86.9750360525 0
292 1 1 -45.6715774192 87.2149209734 0
293 1 1 -45.2329369834 87.4549096566 0
294 1 1 -44.82339854 87.7417515354 0
295 1 1 -44.3915715683 87.9937941241 0
296 1 1 -43.936784107 88.2015641051 0
297 1 1 -43.5132661145 88.4673318797 0
298 1 1 -43.1112876411 88.7646756319 0
299 1 1 -42.729171475 89.0871461509 0
300 1 1 -42.4404701537 89.4953759233 0
301 1 1 -42.1798949295 89.9221083365 0
302 1 1 -41.9541877478 90.3682655601 0
303 1 1 -41.7380047442 90.8191146579 0
304 1 1 -41.523859604 91.2709352627 0
305 1 1 -41.2766762803 91.7055620042 0
306 1 1 -41.0877407979 92.1684911386 0
307 1 1 -40.8791958519 92.6229237579 0
308 1 1 -40.6820819058 93.0824301151 0
309 1 1 -40.5402074359 93.5618794188 0
310 1 1 -40.4031711016 94.0427339114 0
311 1 1 -40.1852535957 94.4927472008 0
312 1 1 -39.9171843158 94.9148121972 0
313 1 1 -39.6807831968 95.3553964807 0
314 1 1 -39.4326582047 95.7894863197 0
315 1 1 -39.1670634363 96.2131128286 0
316 1 1 -38.9039967729 96.6383138758 0
317 1 1 -38.6155844976 97.046747909 0
318 1 1 -38.2432779531 97.380496073 0
319 1 1 -37.8972285073 97.7413974182 0
320 1 1 -37.5188438975 98.0682384914 0
321 1 1 -37.1353412935 98.3890589283 0
322 1 1 -36.7350420219 98.6886594843 0
323 1 1 -36.3622090444 99.0218194622 0
324 1 1 -36.0143151952 99.3809432148 0
325 1 1 -35.7534701257 99.8075107355 0
326 1 1 -35.5222150413 100.250817724 0
327 1 1 -35.2696710544 100.682351656 0
328 1 1 -34.9662732732 101.079780626 0
329 1 1 -34.6092402048 101.42981975 0
330 1 1 -34.2165925426 101.739380428 0
331 1 1 -33.8040970143 102.02195332 0
332 1 1 -33.3805483184 102.28767216 0
333 1 1 -32.9441632614 102.531737893 0
334 1 1 -32.5201240641 102.79667328 0
335 1 1 -32.0684500295 103.011127393 0
336 1 1 -31.6151924347 103.222213993 0
337 1 1 -31.1713872714 103.452511576 0
338 1 1 -30.7271433833 103.681961719 0
339 1 1 -30.3731785164 104.035103154 0
340 1 1 -30.0154194048 104.384400188 0
341 1 1 -29.6835720164 104.75840194 0
342 1 1 -29.3209996005 105.10270013 0
343 1 1 -28.97280463 105.461531932 0
344 1 1 -28.6322478573 105.827620835 0
345 1 1 -28.2713903711 106.173716016 0
346 1 1 -27.9441392824 106.551746075 0
347 1 1 -27.59851294 106.913052636 0
348 1 1 -27.2182873085 107.23775014 0
349 1 1 -26.8235728878 107.544671182 0
350 1 1 -26.4358110915 107.860330475 0
351 1 1 -26.0466277069 108.174235386 0
352 1 1 -25.6489361277 108.47728886 0
353 1 1 -25.2526945467 108.782235756 0
354 1 1 -24.8550880142 109.085400803 0
355 1 1 -24.4289648026 109.346971077 0
356 1 1 -23.9960394602 109.597122327 0
357 1 1 -23.5555664832 109.833730773 0
358 1 1 -23.131020805 110.097853788 0
359 1 1 -22.7238173732 110.388000932 0
360 1 1 -22.324588146 110.689025888 0
361 1 1 -21.944887275 111.014336891 0
362 1 1 -21.5339516685 111.299173558 0
363 1 1 -21.1049829143 111.556050587 0
364 1 1 -20.6770201195 111.814600092 0
365 1 1 -20.2843060596 112.124076532 0
366 1 1 -19.9312189368 112.478095576 0
367 1 1 -19.5393037829 112.788583116 0
368 1 1 -19.1406817574 113.090411678 0
369 1 1 -18.823390905 113.476839569 0
370 1 1 -18.4591443453 113.819366128 0
371 1 1 -18.077225998 114.142070909 0
372 1 1 -17.6649713085 114.424995053 0
373 1 1 -17.2104217232 114.633284934 0
374 1 1 -16.7457212581 114.817820778 0
375 1 1 -16.2664733955 114.960374228 0
376 1 1 -15.7789537316 115.071390341 0
377 1 1 -15.2888397601 115.170326153 0
378 1 1 -14.7998562777 115.274706007 0
379 1 1 -14.3065941529 115.356513563 0
380 1 1 -13.8081795677 115.396299255 0
381 1 1 -13.3118537014 115.456802432 0
382 1 1 -12.8125000563 115.43138714 0
383 1 1 -12.3128135084 115.449088945 0
384 1 1 -11.8128220137 115.446172572 0
385 1 1 -11.3199125197 115.530078654 0
386 1 1 -10.8261919479 115.609072306 0
387 1 1 -10.3262658823 115.600474111 0
388 1 1 -9.82687847747 115.575731033 0
389 1 1 -9.32689018873 115.572308881 0
390 1 1 -8.82887557664 115.616822319 0
391 1 1 -8.34292559234 115.734519442 0
392 1 1 -7.84549812861 115.785174337 0
393 1 1 -7.34569136799 115.771274623 0
394 1 1 -6.85042262819 115.839895869 0
395 1 1 -6.36265097858 115.949799544 0
396 1 1 -5.88381911087 116.093744125 0
397 1 1 -5.39369165978 116.192613138 0
398 1 1 -4.92029365928 116.3535303 0
399 1 1 -4.47275140507 116.57647857 0
400 1 1 -4.01096114902 116.768180837 0


Bonds

0 1 1 2
1 2 2 3
2 3 3 4
3 1 4 5
4 2 5 6
5 3 6 7
6 1 7 8
7 2 8 9
8 3 9 10
9 1 10 11
10 2 11 12
11 3 12 13
12 1 13 14
13 2 14 15
14 3 15 16
15 1 16 17
16 2 17 18
17 3 18 19
18 1 19 20
19 2 20 21
20 3 21 22
21 1 22 23
22 2 23 24
23 3 24 25
24 1 25 26
25 2 26 27
26 3 27 28
27 1 28 29
28 2 29 30
29 3 30 31
30 1 31 32
31 2 32 33
32 3 33 34
33 1 34 35
34 2 35 36
35 3 36 37
36 1 37 38
37 2 38 39
38 3 39 40
39 1 40 41
40 2 41 42
41 3 42 43
42 1 43 44
43 2 44 45
44 3 45 46
45 1 46 47
46 2 47 48
47 3 48 49
48 1 49 50
49 2 50 51
50 3 51 52
51 1 52 53
52 2 53 54
53 3 54 55
54 1 55 56
55 2 56 57
56 3 57 58
57 1 58 59
58 2 59 60
59 3 60 61
60 1 61 62
61 2 62 63
62 3 63 64
63 1 64 65
64 2 65 66
65 3 66 67
66 1 67 68
67 2 68 69
68 3 69 70
69 1 70 71
70 2 71 72
71 3 72 73
72 1 73 74
73 2 74 75
74 3 75 76
75 1 76 77
76 2 77 78
77 3 78 79
78 1 79 80
79 2 80 81
80 3 81 82
81 1 82 83
82 2 83 84
83 3 84 85
84 1 85 86
85 2 86 87
86 3 87 88
87 1 88 89
88 2 89 90
89 3 90 91
90 1 91 92
91 2 92 93
92 3 93 94
93 1 94 95
94 2 95 96
95 3 96 97
96 1 97 98
97 2 98 99
98 3 99 100
99 1 100 101
100 2 101 102
101 3 102 103
102 1 103 104
103 2 104 105
104 3 105 106
105 1 106 107
106 2 107 108
107 3 108 109
108 1 109 110
109 2 110 111
110 3 111 112
111 1 112 113
112 2 113 114
113 3 114 115
114 1 115 116
115 2 116 117
116 3 117 118
117 1 118 119
118 2 119 120
119 3 120 121
120 1 121 122
121 2 122 123
122 3 123 124
123 1 124 125
124 2 125 126
125 3 126 127
126 1 127 128
127 2 128 129
128 3 129 130
129 1 130 131
130 2 131 132
131 3 132 133
132 1 133 134
133 2 134 135
134 3 135 136
135 1 136 137
136 2 137 138
137 3 138 139
138 1 139 140
139 2 140 141
140 3 141 142
141 1 142 143
142 2 143 144
143 3 144 145
144 1 145 146
145 2 146 147
146 3 147 148
147 1 148 149
148 2 149 150
149 3 150 151
150 1 151 152
151 2 152 153
152 3 153 154
153 1 154 155
154 2 155 156
155 3 156 157
156 1 157 158
157 2 158 159
158 3 159 160
159 1 160 161
160 2 161 162
161 3 162 163
162 1 163 164
163 2 164 165
164 3 165 166
165 1 166 167
166 2 167 168
167 3 168 169
168 1 169 170
169 2 170 171
170 3 171 172
171 1 172 173
172 2 173 174
173 3 174 175
174 1 175 176
175 2 176 177
176 3 177 178
177 1 178 179
178 2 179 180
179 3 180 181
180 1 181 182
181 2 182 183
182 3 183 184
183 1 184 185
184 2 185 186
185 3 186 187
186 1 187 188
187 2 188 189
188 3 189 190
189 1 190 191
190 2 191 192
191 3 192 193
192 1 193 194
193 2 194 195
194 3 195 196
195 1 196 197
196 2 197 198
197 3 198 199
198 1 199 200
199 2 200 201
200 3 201 202
201 1 202 203
202 2 203 204
203 3 204 205
204 1 205 206
205 2 206 207
206 3 207 208
207 1 208 209
208 2 209 210
209 3 210 211
210 1 211 212
211 2 212 213
212 3 213 214
213 1 214 215
214 2 215 216
215 3 216 217
216 1 217 218
217 2 218 219
218 3 219 220
219 1 220 221
220 2 221 222
221 3 222 223
222 1 223 224
223 2 224 225
224 3 225 226
225 1 226 227
226 2 227 228
227 3 228 229
228 1 229 230
229 2 230 231
230 3 231 232
231 1 232 233
232 2 233 234
233 3 234 235
234 1 235 236
235 2 236 237
236 3 237 238
237 1 238 239
238 2 239 240
239 3 240 241
240 1 241 242
241 2 242 243
242 3 243 244
243 1 244 245
244 2 245 246
245 3 246 247
246 1 247 248
247 2 248 249
248 3 249 250
249 1 250 251
250 2 251 252
251 3 252 253
252 1 253 254
253 2 254 255
254 3 255 256
255 1 256 257
256 2 257 258
257 3 258 259
258 1 259 260
259 2 260 261
260 3 261 262
261 1 262 263
262 2 263 264
263 3 264 265
264 1 265 266
265 2 266 267
266 3 267 268
267 1 268 269
268 2 269 270
269 3 270 271
270 1 271 272
271 2 272 273
272 3 273 274
273 1 274 275
274 2 275 276
275 3 276 277
276 1 277 278
277 2 278 279
278 3 279 280
279 1 280 281
280 2 281 282
281 3 282 283
282 1 283 284
283 2 284 285
284 3 285 286
285 1 286 287
286 2 287 288
287 3 288 289
288 1 289 290
289 2 290 291
290 3 291 292
291 1 292 293
292 2 293 294
293 3 294 295
294 1 295 296
295 2 296 297
296 3 297 298
297 1 298 299
298 2 299 300
299 3 300 301
300 1 301 302
301 2 302 303
302 3 303 304
303 1 304 305
304 2 305 306
305 3 306 307
306 1 307 308
307 2 308 309
308 3 309 310
309 1 310 311
310 2 311 312
311 3 312 313
312 1 313 314
313 2 314 315
314 3 315 316
315 1 316 317
316 2 317 318
317 3 318 319
318 1 319 320
319 2 320 321
320 3 321 322
321 1 322 323
322 2 323 324
323 3 324 325
324 1 325 326
325 2 326 327
326 3 327 328
327 1 328 329
328 2 329 330
329 3 330 331
330 1 331 332
331 2 332 333
332 3 333 334
333 1 334 335
334 2 335 336
335 3 336 337
336 1 337 338
337 2 338 339
338 3 339 340
339 1 340 341
340 2 341 342
341 3 342 343
342 1 343 344
343 2 344 345
344 3 345 346
345 1 346 347
346 2 347 348
347 3 348 349
348 1 349 350
349 2 350 351
350 3 351 352
351 1 352 353
352 2 353 354
353 3 354 355
354 1 355 356
355 2 356 357
356 3 357 358
357 1 358 359
358 2 359 360
359 3 360 361
360 1 361 362
361 2 362 363
362 3 363 364
363 1 364 365
364 2 365 366
365 3 366 367
366 1 367 368
367 2 368 369
368 3 369 370
369 1 370 371
370 2 371 372
371 3 372 373
372 1 373 374
373 2 374 375
374 3 375 376
375 1 376 377
376 2 377 378
377 3 378 379
378 1 379 380
379 2 380 381
380 3 381 382
381 1 382 383
382 2 383 384
383 3 384 385
384 1 385 386
385 2 386 387
386 3 387 388
387 1 388 389
388 2 389 390
389 3 390 391
390 1 391 392
391 2 392 393
392 3 393 394
393 1 394 395
394 2 395 396
395 3 396 397
396 1 397 398
397 2 398 399
398 3 399 400


Angles

1 1 1 2 3
2 1 2 3 4
3 1 3 4 5
4 1 4 5 6
5 1 5 6 7
6 1 6 7 8
7 1 7 8 9
8 1 8 9 10
9 1 9 10 11
10 1 10 11 12
11 1 11 12 13
12 1 12 13 14
13 1 13 14 15
14 1 14 15 16
15 1 15 16 17
16 1 16 17 18
17 1 17 18 19
18 1 18 19 20
19 1 19 20 21
20 1 20 21 22
21 1 21 22 23
22 1 22 23 24
23 1 23 24 25
24 1 24 25 26
25 1 25 26 27
26 1 26 27 28
27 1 27 28 29
28 1 28 29 30
29 1 29 30 31
30 1 30 31 32
31 1 31 32 33
32 1 32 33 34
33 1 33 34 35
34 1 34 35 36
35 1 35 36 37
36 1 36 37 38
37 1 37 38 39
38 1 38 39 40
39 1 39 40 41
40 1 40 41 42
41 1 41 42 43
42 1 42 43 44
43 1 43 44 45
44 1 44 45 46
45 1 45 46 47
46 1 46 47 48
47 1 47 48 49
48 1 48 49 50
49 1 49 50 51
50 1 50 51 52
51 1 51 52 53
52 1 52 53 54
53 1 53 54 55
54 1 54 55 56
55 1 55 56 57
56 1 56 57 58
57 1 57 58 59
58 1 58 59 60
59 1 59 60 61
60 1 60 61 62
61 1 61 62 63
62 1 62 63 64
63 1 63 64 65
64 1 64 65 66
65 1 65 66 67
66 1 66 67 68
67 1 67 68 69
68 1 68 69 70
69 1 69 70 71
70 1 70 71 72
71 1 71 72 73
72 1 72 73 74
73 1 73 74 75
74 1 74 75 76
75 1 75 76 77
76 1 76 77 78
77 1 77 78 79
78 1 78 79 80
79 1 79 80 81
80 1 80 81 82
81 1 81 82 83
82 1 82 83 84
83 1 83 84 85
84 1 84 85 86
85 1 85 86 87
86 1 86 87 88
87 1 87 88 89
88 1 88 89 90
89 1 89 90 91
90 1 90 91 92
91 1 91 92 93
92 1 92 93 94
93 1 93 94 95
94 1 94 95 96
95 1 95 96 97
96 1 96 97 98
97 1 97 98 99
98 1 98 99 100
99 1 99 100 101
100 1 100 101 102
101 1 101 102 103
102 1 102 103 104
103 1 103 104 105
104 1 104 105 106
105 1 105 106 107
106 1 106 107 108
107 1 107 108 109
108 1 108 109 110
109 1 109 110 111
110 1 110 111 112
111 1 111 112 113
112 1 112 113 114
113 1 113 114 115
114 1 114 115 116
115 1 115 116 117
116 1 116 117 118
117 1 117 118 119
118 1 118 119 120
119 1 119 120 121
120 1 120 121 122
121 1 121 122 123
122 1 122 123 124
123 1 123 124 125
124 1 124 125 126
125 1 125 126 127
126 1 126 127 128
127 1 127 128 129
128 1 128 129 130
129 1 129 130 131
130 1 130 131 132
131 1 131 132 133
132 1 132 133 134
133 1 133 134 135
134 1 134 135 136
135 1 135 136 137
136 1 136 137 138
137 1 137 138 139
138 1 138 139 140
139 1 139 140 141
140 1 140 141 142
141 1 141 142 143
142 1 142 143 144
143 1 143 144 145
144 1 144 145 146
145 1 145 146 147
146 1 146 147 148
147 1 147 148 149
148 1 148 149 150
149 1 149 150 151
150 1 150 151 152
151 1 151 152 153
152 1 152 153 154
153 1 153 154 155
154 1 154 155 156
155 1 155 156 157
156 1 156 157 158
157 1 157 158 159
158 1 158 159 160
159 1 159 160 161
160 1 160 161 162
161 1 161 162 163
162 1 162 163 164
163 1 163 164 165
164 1 164 165 166
165 1 165 166 167
166 1 166 167 168
167 1 167 168 169
168 1 168 169 170
169 1 169 170 171
170 1 170 171 172
171 1 171 172 173
172 1 172 173 174
173 1 173 174 175
174 1 174 175 176
175 1 175 176 177
176 1 176 177 178
177 1 177 178 179
178 1 178 179 180
179 1 179 180 181
180 1 180 181 182
181 1 181 182 183
182 1 182 183 184
183 1 183 184 185
184 1 184 185 186
185 1 185 186 187
186 1 186 187 188
187 1 187 188 189
188 1 188 189 190
189 1 189 190 191
190 1 190 191 192
191 1 191 192 193
192 1 192 193 194
193 1 193 194 195
194 1 194 195 196
195 1 195 196 197
196 1 196 197 198
197 1 197 198 199
198 1 198 199 200
199 1 199 200 201
200 1 200 201 202
201 1 201 202 203
202 1 202 203 204
203 1 203 204 205
204 1 204 205 206
205 1 205 206 207
206 1 206 207 208
207 1 207 208 209
208 1 208 209 210
209 1 209 210 211
210 1 210 211 212
211 1 211 212 213
212 1 212 213 214
213 1 213 214 215
214 1 214 215 216
215 1 215 216 217
216 1 216 217 218
217 1 217 218 219
218 1 218 219 220
219 1 219 220 221
220 1 220 221 222
221 1 221 222 223
222 1 222 223 224
223 1 223 224 225
224 1 224 225 226
225 1 225 226 227
226 1 226 227 228
227 1 227 228 229
228 1 228 229 230
229 1 229 230 231
230 1 230 231 232
231 1 231 232 233
232 1 232 233 234
233 1 233 234 235
234 1 234 235 236
235 1 235 236 237
236 1 236 237 238
237 1 237 238 239
238 1 238 239 240
239 1 239 240 241
240 1 240 241 242
241 1 241 242 243
242 1 242 243 244
243 1 243 244 245
244 1 244 245 246
245 1 245 246 247
246 1 246 247 248
247 1 247 248 249
248 1 248 249 250
249 1 249 250 251
250 1 250 251 252
251 1 251 252 253
252 1 252 253 254
253 1 253 254 255
254 1 254 255 256
255 1 255 256 257
256 1 256 257 258
257 1 257 258 259
258 1 258 259 260
259 1 259 260 261
260 1 260 261 262
261 1 261 262 263
262 1 262 263 264
263 1 263 264 265
264 1 264 265 266
265 1 265 266 267
266 1 266 267 268
267 1 267 268 269
268 1 268 269 270
269 1 269 270 271
270 1 270 271 272
271 1 271 272 273
272 1 272 273 274
273 1 273 274 275
274 1 274 275 276
275 1 275 276 277
276 1 276 277 278
277 1 277 278 279
278 1 278 279 280
279 1 279 280 281
280 1 280 281 282
281 1 281 282 283
282 1 282 283 284
283 1 283 284 285
284 1 284 285 286
285 1 285 286 287
286 1 286 287 288
287 1 287 288 289
288 1 288 289 290
289 1 289 290 291
290 1 290 291 292
291 1 291 292 293
292 1 292 293 294
293 1 293 294 295
294 1 294 295 296
295 1 295 296 297
296 1 296 297 298
297 1 297 298 299
298 1 298 299 300
299 1 299 300 301
300 1 300 301 302
301 1 301 302 303
302 1 302 303 304
303 1 303 304 305
304 1 304 305 306
305 1 305 306 307
306 1 306 307 308
307 1 307 308 309
308 1 308 309 310
309 1 309 310 311
310 1 310 311 312
311 1 311 312 313
312 1 312 313 314
313 1 313 314 315
314 1 314 315 316
315 1 315 316 317
316 1 316 317 318
317 1 317 318 319
318 1 318 319 320
319 1 319 320 321
320 1 320 321 322
321 1 321 322 323
322 1 322 323 324
323 1 323 324 325
324 1 324 325 326
325 1 325 326 327
326 1 326 327 328
327 1 327 328 329
328 1 328 329 330
329 1 329 330 331
330 1 330 331 332
331 1 331 332 333
332 1 332 333 334
333 1 333 334 335
334 1 334 335 336
335 1 335 336 337
336 1 336 337 338
337 1 337 338 339
338 1 338 339 340
339 1 339 340 341
340 1 340 341 342
341 1 341 342 343
342 1 342 343 344
343 1 343 344 345
344 1 344 345 346
345 1 345 346 347
346 1 346 347 348
347 1 347 348 349
348 1 348 349 350
349 1 349 350 351
350 1 350 351 352
351 1 351 352 353
352 1 352 353 354
353 1 353 354 355
354 1 354 355 356
355 1 355 356 357
356 1 356 357 358
357 1 357 358 359
358 1 358 359 360
359 1 359 360 361
360 1 360 361 362
361 1 361 362 363
362 1 362 363 364
363 1 363 364 365
364 1 364 365 366
365 1 365 366 367
366 1 366 367 368
367 1 367 368 369
368 1 368 369 370
369 1 369 370 371
370 1 370 371 372
371 1 371 372 373
372 1 372 373 374
373 1 373 374 375
374 1 374 375 376
375 1 375 376 377
376 1 376 377 378
377 1 377 378 379
378 1 378 379 380
379 1 379 380 381
380 1 380 381 382
381 1 381 382 383
382 1 382 383 384
383 1 383 384 385
384 1 384 385 386
385 1 385 386 387
386 1 386 387 388
387 1 387 388 389
388 1 388 389 390
389 1 389 390 391
390 1 390 391 392
391 1 391 392 393
392 1 392 393 394
393 1 393 394 395
394 1 394 395 396
395 1 395 396 397
396 1 396 397 398
397 1 397 398 399
398 1 398 399 400
