#Actin filament

25 atoms
24 bonds
23 angles

1 atom types
3 bond types
1 angle types

-500 500 xlo xhi
-500 500 ylo yhi
-0.05 0.05 zlo zhi

Masses

1 1


Atoms

1 1 1 -150 0 0
2 1 1 -142.031053017 -0.704190306207 0
3 1 1 -134.036684748 -1.00431691572 0
4 1 1 -126.24389627 0.804673886781 0
5 1 1 -118.584893909 3.11544926373 0
6 1 1 -110.821043801 5.04486148036 0
7 1 1 -103.006597492 6.75787895986 0
8 1 1 -95.1274577537 8.14321537363 0
9 1 1 -87.2516391297 9.54730974418 0
10 1 1 -79.7815097091 12.4103791531 0
11 1 1 -72.1801543444 14.9042509662 0
12 1 1 -64.5868252191 17.422455246 0
13 1 1 -56.8834961748 19.5808624444 0
14 1 1 -49.29071507 22.1007186099 0
15 1 1 -42.1971937449 25.7996313164 0
16 1 1 -35.1121958141 29.5148438703 0
17 1 1 -28.4976458128 34.01459145 0
18 1 1 -21.8336393031 38.4407655585 0
19 1 1 -15.3399748052 43.1132725289 0
20 1 1 -8.39506024982 47.0841870102 0
21 1 1 -1.33092002474 50.8389070904 0
22 1 1 5.12225542968 55.5671759654 0
23 1 1 11.5232813453 60.3658077733 0
24 1 1 17.9993586888 65.0626601491 0
25 1 1 23.6395728366 70.7361056955 0


Bonds

0 1 1 2
1 2 2 3
2 3 3 4
3 1 4 5
4 2 5 6
5 3 6 7
6 1 7 8
7 2 8 9
8 3 9 10
9 1 10 11
10 2 11 12
11 3 12 13
12 1 13 14
13 2 14 15
14 3 15 16
15 1 16 17
16 2 17 18
17 3 18 19
18 1 19 20
19 2 20 21
20 3 21 22
21 1 22 23
22 2 23 24
23 3 24 25


Angles

1 1 1 2 3
2 1 2 3 4
3 1 3 4 5
4 1 4 5 6
5 1 5 6 7
6 1 6 7 8
7 1 7 8 9
8 1 8 9 10
9 1 9 10 11
10 1 10 11 12
11 1 11 12 13
12 1 12 13 14
13 1 13 14 15
14 1 14 15 16
15 1 15 16 17
16 1 16 17 18
17 1 17 18 19
18 1 18 19 20
19 1 19 20 21
20 1 20 21 22
21 1 21 22 23
22 1 22 23 24
23 1 23 24 25
