#Actin filament

100 atoms
99 bonds
98 angles

1 atom types
3 bond types
1 angle types

-500 500 xlo xhi
-500 500 ylo yhi
-0.05 0.05 zlo zhi

Masses

1 1


Atoms

1 1 1 -150 0 0
2 1 1 -148.019343215 0.277486394816 0
3 1 1 -146.056205793 0.659705526714 0
4 1 1 -144.060383878 0.788914194956 0
5 1 1 -142.096877116 1.16923142749 0
6 1 1 -140.124146453 1.49837232538 0
7 1 1 -138.125172417 1.56242544869 0
8 1 1 -136.125719557 1.60920432553 0
9 1 1 -134.14312956 1.87252333882 0
10 1 1 -132.151742586 2.05793617958 0
11 1 1 -130.179673343 2.39101709996 0
12 1 1 -128.293431691 3.05591741577 0
13 1 1 -126.355526271 3.55040966389 0
14 1 1 -124.384442068 3.88927108591 0
15 1 1 -122.38707638 3.78665378669 0
16 1 1 -120.389833046 3.68168206478 0
17 1 1 -118.390136667 3.71653019162 0
18 1 1 -116.459595513 3.19402578641 0
19 1 1 -114.539928449 2.63288555023 0
20 1 1 -112.57339007 2.26856865015 0
21 1 1 -110.613042584 1.87228878094 0
22 1 1 -108.663896312 1.42414950643 0
23 1 1 -106.734758224 0.896488407041 0
24 1 1 -104.786185592 0.445861398409 0
25 1 1 -102.854727771 -0.0732442581297 0
26 1 1 -100.926329853 -0.603604013302 0
27 1 1 -98.9575850041 -0.95580242547 0
28 1 1 -96.9693511222 -1.1724265947 0
29 1 1 -95.0243822476 -1.6383622949 0
30 1 1 -93.081690342 -2.11370234148 0
31 1 1 -91.1040893337 -2.41218894441 0
32 1 1 -89.1101405488 -2.56765033207 0
33 1 1 -87.121815949 -2.7834402441 0
34 1 1 -85.1310337288 -2.97523740727 0
35 1 1 -83.1433558025 -2.75356995137 0
36 1 1 -81.1574009068 -2.51696235977 0
37 1 1 -79.1618940985 -2.38297512974 0
38 1 1 -77.1686560921 -2.54729874373 0
39 1 1 -75.1745578271 -2.7008308553 0
40 1 1 -73.232116239 -3.17719277314 0
41 1 1 -71.2919663944 -3.66280432627 0
42 1 1 -69.2934381475 -3.73951707872 0
43 1 1 -67.3028744461 -3.93356900682 0
44 1 1 -65.3193546649 -4.18979015654 0
45 1 1 -63.3783436123 -4.67194790421 0
46 1 1 -61.5756293578 -5.53810107582 0
47 1 1 -59.716120673 -6.27446202757 0
48 1 1 -57.8646054315 -7.03069698465 0
49 1 1 -56.1942049731 -8.13058893783 0
50 1 1 -54.4035760208 -9.02145815116 0
51 1 1 -52.5783822424 -9.83917917403 0
52 1 1 -50.7435482932 -10.63503367 0
53 1 1 -49.0303555911 -11.6670078778 0
54 1 1 -47.4737889228 -12.9228343814 0
55 1 1 -45.7790200516 -13.9847941138 0
56 1 1 -44.0975615672 -15.0677056361 0
57 1 1 -42.30571548 -15.956124231 0
58 1 1 -40.5357964259 -16.8874601221 0
59 1 1 -38.6491769409 -17.5512875988 0
60 1 1 -36.7089937174 -18.0367657744 0
61 1 1 -34.867596261 -18.8173139201 0
62 1 1 -33.0191579463 -19.5810388685 0
63 1 1 -31.1520943206 -20.2980280018 0
64 1 1 -29.1859242772 -20.6643275521 0
65 1 1 -27.3662944305 -21.4943559979 0
66 1 1 -25.4930902007 -22.1951454909 0
67 1 1 -23.6464198694 -22.9631355217 0
68 1 1 -21.7461503437 -23.5868147101 0
69 1 1 -19.7566258229 -23.7912460703 0
70 1 1 -17.759075543 -23.8902050482 0
71 1 1 -15.788478981 -24.2318908536 0
72 1 1 -13.8108279475 -24.5300458295 0
73 1 1 -11.8523125604 -24.9352833879 0
74 1 1 -9.89821467802 -25.3613132765 0
75 1 1 -7.92418197329 -25.6825528766 0
76 1 1 -5.93636311183 -25.9029529084 0
77 1 1 -3.96710643854 -26.2522781934 0
78 1 1 -1.99705659852 -26.5971022468 0
79 1 1 -0.000730735942595 -26.7182758842 0
80 1 1 1.99697762366 -26.8139906164 0
81 1 1 3.97692011204 -27.096528654 0
82 1 1 5.95037746117 -27.4212840869 0
83 1 1 7.89142961644 -27.9032763384 0
84 1 1 9.86558842757 -28.2237400468 0
85 1 1 11.8462755216 -28.5010100155 0
86 1 1 13.8101220647 -28.8795688026 0
87 1 1 15.8101217892 -28.8806184668 0
88 1 1 17.7691740072 -29.2832528011 0
89 1 1 19.7517426516 -29.5467325349 0
90 1 1 21.6714281811 -30.1078095954 0
91 1 1 23.5415683574 -30.816735347 0
92 1 1 25.3706896818 -31.6256328562 0
93 1 1 27.2043320982 -32.4242288047 0
94 1 1 29.0363940795 -33.2264437987 0
95 1 1 30.9240598691 -33.8872901249 0
96 1 1 32.8792038681 -34.3084930962 0
97 1 1 34.858541323 -34.5952390459 0
98 1 1 36.8050494088 -35.0547020717 0
99 1 1 38.6070879784 -35.9222601351 0
100 1 1 40.4010745585 -36.8063484512 0


Bonds

0 1 1 2
1 2 2 3
2 3 3 4
3 1 4 5
4 2 5 6
5 3 6 7
6 1 7 8
7 2 8 9
8 3 9 10
9 1 10 11
10 2 11 12
11 3 12 13
12 1 13 14
13 2 14 15
14 3 15 16
15 1 16 17
16 2 17 18
17 3 18 19
18 1 19 20
19 2 20 21
20 3 21 22
21 1 22 23
22 2 23 24
23 3 24 25
24 1 25 26
25 2 26 27
26 3 27 28
27 1 28 29
28 2 29 30
29 3 30 31
30 1 31 32
31 2 32 33
32 3 33 34
33 1 34 35
34 2 35 36
35 3 36 37
36 1 37 38
37 2 38 39
38 3 39 40
39 1 40 41
40 2 41 42
41 3 42 43
42 1 43 44
43 2 44 45
44 3 45 46
45 1 46 47
46 2 47 48
47 3 48 49
48 1 49 50
49 2 50 51
50 3 51 52
51 1 52 53
52 2 53 54
53 3 54 55
54 1 55 56
55 2 56 57
56 3 57 58
57 1 58 59
58 2 59 60
59 3 60 61
60 1 61 62
61 2 62 63
62 3 63 64
63 1 64 65
64 2 65 66
65 3 66 67
66 1 67 68
67 2 68 69
68 3 69 70
69 1 70 71
70 2 71 72
71 3 72 73
72 1 73 74
73 2 74 75
74 3 75 76
75 1 76 77
76 2 77 78
77 3 78 79
78 1 79 80
79 2 80 81
80 3 81 82
81 1 82 83
82 2 83 84
83 3 84 85
84 1 85 86
85 2 86 87
86 3 87 88
87 1 88 89
88 2 89 90
89 3 90 91
90 1 91 92
91 2 92 93
92 3 93 94
93 1 94 95
94 2 95 96
95 3 96 97
96 1 97 98
97 2 98 99
98 3 99 100


Angles

1 1 1 2 3
2 1 2 3 4
3 1 3 4 5
4 1 4 5 6
5 1 5 6 7
6 1 6 7 8
7 1 7 8 9
8 1 8 9 10
9 1 9 10 11
10 1 10 11 12
11 1 11 12 13
12 1 12 13 14
13 1 13 14 15
14 1 14 15 16
15 1 15 16 17
16 1 16 17 18
17 1 17 18 19
18 1 18 19 20
19 1 19 20 21
20 1 20 21 22
21 1 21 22 23
22 1 22 23 24
23 1 23 24 25
24 1 24 25 26
25 1 25 26 27
26 1 26 27 28
27 1 27 28 29
28 1 28 29 30
29 1 29 30 31
30 1 30 31 32
31 1 31 32 33
32 1 32 33 34
33 1 33 34 35
34 1 34 35 36
35 1 35 36 37
36 1 36 37 38
37 1 37 38 39
38 1 38 39 40
39 1 39 40 41
40 1 40 41 42
41 1 41 42 43
42 1 42 43 44
43 1 43 44 45
44 1 44 45 46
45 1 45 46 47
46 1 46 47 48
47 1 47 48 49
48 1 48 49 50
49 1 49 50 51
50 1 50 51 52
51 1 51 52 53
52 1 52 53 54
53 1 53 54 55
54 1 54 55 56
55 1 55 56 57
56 1 56 57 58
57 1 57 58 59
58 1 58 59 60
59 1 59 60 61
60 1 60 61 62
61 1 61 62 63
62 1 62 63 64
63 1 63 64 65
64 1 64 65 66
65 1 65 66 67
66 1 66 67 68
67 1 67 68 69
68 1 68 69 70
69 1 69 70 71
70 1 70 71 72
71 1 71 72 73
72 1 72 73 74
73 1 73 74 75
74 1 74 75 76
75 1 75 76 77
76 1 76 77 78
77 1 77 78 79
78 1 78 79 80
79 1 79 80 81
80 1 80 81 82
81 1 81 82 83
82 1 82 83 84
83 1 83 84 85
84 1 84 85 86
85 1 85 86 87
86 1 86 87 88
87 1 87 88 89
88 1 88 89 90
89 1 89 90 91
90 1 90 91 92
91 1 91 92 93
92 1 92 93 94
93 1 93 94 95
94 1 94 95 96
95 1 95 96 97
96 1 96 97 98
97 1 97 98 99
98 1 98 99 100
