#Actin filament

8 atoms
7 bonds
6 angles

1 atom types
3 bond types
1 angle types

-500 500 xlo xhi
-500 500 ylo yhi
-0.05 0.05 zlo zhi

Masses

1 1


Atoms

1 1 1 -150 0 0
2 1 1 -127.019446151 -0.945592301914 0
3 1 1 -104.019687588 -1.05097740218 0
4 1 1 -81.1309950645 1.20905679664 0
5 1 1 -58.308133708 4.05809163342 0
6 1 1 -35.6863265431 8.21186589237 0
7 1 1 -12.7144875559 7.07405503397 0
8 1 1 10.2759932911 6.41239770509 0


Bonds

0 1 1 2
1 2 2 3
2 3 3 4
3 1 4 5
4 2 5 6
5 3 6 7
6 1 7 8


Angles

1 1 1 2 3
2 1 2 3 4
3 1 3 4 5
4 1 4 5 6
5 1 5 6 7
6 1 6 7 8
