#Actin filament

5 atoms
4 bonds
3 angles

1 atom types
3 bond types
1 angle types

-500 500 xlo xhi
-500 500 ylo yhi
-0.05 0.05 zlo zhi

Masses

1 1


Atoms

1 1 1 -150 0 0
2 1 1 -110.007925687 -0.796236230848 0
3 1 1 -70.2012787602 -4.72444962292 0
4 1 1 -30.2017368751 -4.91588885352 0
5 1 1 9.63770747467 -8.49620642388 0


Bonds

0 1 1 2
1 2 2 3
2 3 3 4
3 1 4 5


Angles

1 1 1 2 3
2 1 2 3 4
3 1 3 4 5
