#Actin filament

6 atoms
5 bonds
4 angles

1 atom types
3 bond types
1 angle types

-500 500 xlo xhi
-500 500 ylo yhi
-0.05 0.05 zlo zhi

Masses

1 1


Atoms

1 1 1 -150 0 0
2 1 1 -120.24073523 -3.79290921832 0
3 1 1 -90.2630729695 -4.95039157581 0
4 1 1 -60.2631562018 -5.02105932523 0
5 1 1 -31.6436254039 -14.0167503441 0
6 1 1 -2.47922131992 -21.0479333474 0


Bonds

0 1 1 2
1 2 2 3
2 3 3 4
3 1 4 5
4 2 5 6


Angles

1 1 1 2 3
2 1 2 3 4
3 1 3 4 5
4 1 4 5 6
