#Actin filament

15 atoms
14 bonds
13 angles

1 atom types
3 bond types
1 angle types

-500 500 xlo xhi
-500 500 ylo yhi
-0.05 0.05 zlo zhi

Masses

1 1


Atoms

1 1 1 -150 0 0
2 1 1 -137.04860401 1.12309478634 0
3 1 1 -124.116802966 2.45295258533 0
4 1 1 -111.143373479 3.28369162629 0
5 1 1 -98.5288390912 6.42590775092 0
6 1 1 -86.2453708464 10.6822451294 0
7 1 1 -74.399589445 16.037379394 0
8 1 1 -64.1977348937 24.0948084947 0
9 1 1 -53.9515078102 32.0957353505 0
10 1 1 -44.2053632083 40.6987967475 0
11 1 1 -34.2763301514 49.090119799 0
12 1 1 -25.4669165058 58.6501528126 0
13 1 1 -18.6248199922 69.7039175694 0
14 1 1 -12.1568058802 80.9806543956 0
15 1 1 -4.55680791332 91.5276933594 0


Bonds

0 1 1 2
1 2 2 3
2 3 3 4
3 1 4 5
4 2 5 6
5 3 6 7
6 1 7 8
7 2 8 9
8 3 9 10
9 1 10 11
10 2 11 12
11 3 12 13
12 1 13 14
13 2 14 15


Angles

1 1 1 2 3
2 1 2 3 4
3 1 3 4 5
4 1 4 5 6
5 1 5 6 7
6 1 6 7 8
7 1 7 8 9
8 1 8 9 10
9 1 9 10 11
10 1 10 11 12
11 1 11 12 13
12 1 12 13 14
13 1 13 14 15
