#Actin filament

22 atoms
21 bonds
20 angles

1 atom types
3 bond types
1 angle types

-500 500 xlo xhi
-500 500 ylo yhi
-0.05 0.05 zlo zhi

Masses

1 1


Atoms

1 1 1 -150 0 0
2 1 1 -141.026556268 -0.690874514672 0
3 1 1 -132.129941367 -2.05111099821 0
4 1 1 -123.416990119 -4.30599027493 0
5 1 1 -114.765912755 -6.78769542341 0
6 1 1 -106.003251043 -8.84092695464 0
7 1 1 -97.4709725305 -11.704530172 0
8 1 1 -88.7181462742 -13.7992932917 0
9 1 1 -80.014075202 -16.0882115447 0
10 1 1 -71.2253576055 -18.0268819679 0
11 1 1 -62.35100327 -19.5254930342 0
12 1 1 -53.6807324814 -21.939287651 0
13 1 1 -45.5705620741 -25.8412276768 0
14 1 1 -37.7084416506 -30.2215315985 0
15 1 1 -29.6287873854 -34.1862745856 0
16 1 1 -21.8225456648 -38.6654028713 0
17 1 1 -13.966032569 -43.0557561573 0
18 1 1 -6.04406948044 -47.3268802276 0
19 1 1 2.26467889571 -50.785883035 0
20 1 1 10.7133626354 -53.8874540994 0
21 1 1 19.0268944693 -57.3349442655 0
22 1 1 27.6562443075 -59.8911761351 0


Bonds

0 1 1 2
1 2 2 3
2 3 3 4
3 1 4 5
4 2 5 6
5 3 6 7
6 1 7 8
7 2 8 9
8 3 9 10
9 1 10 11
10 2 11 12
11 3 12 13
12 1 13 14
13 2 14 15
14 3 15 16
15 1 16 17
16 2 17 18
17 3 18 19
18 1 19 20
19 2 20 21
20 3 21 22


Angles

1 1 1 2 3
2 1 2 3 4
3 1 3 4 5
4 1 4 5 6
5 1 5 6 7
6 1 6 7 8
7 1 7 8 9
8 1 8 9 10
9 1 9 10 11
10 1 10 11 12
11 1 11 12 13
12 1 12 13 14
13 1 13 14 15
14 1 14 15 16
15 1 15 16 17
16 1 16 17 18
17 1 17 18 19
18 1 18 19 20
19 1 19 20 21
20 1 20 21 22
