#Actin filament

23 atoms
22 bonds
21 angles

1 atom types
3 bond types
1 angle types

-500 500 xlo xhi
-500 500 ylo yhi
-0.05 0.05 zlo zhi

Masses

1 1


Atoms

1 1 1 -150 0 0
2 1 1 -141.53003245 0.713897538881 0
3 1 1 -133.032509223 0.91907798 0
4 1 1 -124.534800687 0.721721339982 0
5 1 1 -116.06287526 1.41199631909 0
6 1 1 -107.563344384 1.50129860237 0
7 1 1 -99.103228466 0.678839698249 0
8 1 1 -90.7698666589 -0.995997903669 0
9 1 1 -82.5843137569 -3.28657068963 0
10 1 1 -74.0983856688 -3.77547199269 0
11 1 1 -65.6581459882 -4.78163009857 0
12 1 1 -57.1801248145 -5.39249585993 0
13 1 1 -48.7381998211 -4.40057731185 0
14 1 1 -40.2392016318 -4.27007911792 0
15 1 1 -31.7634496511 -4.91166181838 0
16 1 1 -23.2825042404 -5.48048950832 0
17 1 1 -15.0784779348 -7.70398953682 0
18 1 1 -6.83088346474 -9.76000156435 0
19 1 1 1.36822141147 -12.0015811924 0
20 1 1 9.7307233674 -13.5242633775 0
21 1 1 17.8454419331 -16.0543508463 0
22 1 1 26.0022906471 -18.4451287649 0
23 1 1 34.3995241161 -19.7628806644 0


Bonds

0 1 1 2
1 2 2 3
2 3 3 4
3 1 4 5
4 2 5 6
5 3 6 7
6 1 7 8
7 2 8 9
8 3 9 10
9 1 10 11
10 2 11 12
11 3 12 13
12 1 13 14
13 2 14 15
14 3 15 16
15 1 16 17
16 2 17 18
17 3 18 19
18 1 19 20
19 2 20 21
20 3 21 22
21 1 22 23


Angles

1 1 1 2 3
2 1 2 3 4
3 1 3 4 5
4 1 4 5 6
5 1 5 6 7
6 1 6 7 8
7 1 7 8 9
8 1 8 9 10
9 1 9 10 11
10 1 10 11 12
11 1 11 12 13
12 1 12 13 14
13 1 13 14 15
14 1 14 15 16
15 1 15 16 17
16 1 16 17 18
17 1 17 18 19
18 1 18 19 20
19 1 19 20 21
20 1 20 21 22
21 1 21 22 23
