#Actin filament

1666 atoms
1665 bonds
1664 angles

1 atom types
3 bond types
1 angle types

-500 500 xlo xhi
-500 500 ylo yhi
-0.05 0.05 zlo zhi

Masses

1 1


Atoms

1 1 1 -150 0 0
2 1 1 -149.880187868 0.00671216076862 0
3 1 1 -149.760189415 0.00732134153149 0
4 1 1 -149.640248967 0.011101411868 0
5 1 1 -149.520257479 0.00967213181556 0
6 1 1 -149.40059172 0.0186223390891 0
7 1 1 -149.280676997 0.0231455190793 0
8 1 1 -149.161935202 0.0404771726536 0
9 1 1 -149.042047125 0.0456587776781 0
10 1 1 -148.922498369 0.0352619053789 0
11 1 1 -148.804656888 0.0126038991361 0
12 1 1 -148.687769771 -0.0145512454514 0
13 1 1 -148.56930528 -0.0336866644987 0
14 1 1 -148.45111934 -0.0544732872667 0
15 1 1 -148.332360173 -0.0716854989882 0
16 1 1 -148.212487837 -0.0772193178533 0
17 1 1 -148.093062792 -0.0889521154588 0
18 1 1 -147.975715894 -0.114046050866 0
19 1 1 -147.863006698 -0.155236306847 0
20 1 1 -147.744580107 -0.174604901935 0
21 1 1 -147.625030228 -0.184988854726 0
22 1 1 -147.505268001 -0.192539277109 0
23 1 1 -147.385452742 -0.185883176939 0
24 1 1 -147.265918737 -0.175318061735 0
25 1 1 -147.146015805 -0.170492410982 0
26 1 1 -147.026543464 -0.181733402317 0
27 1 1 -146.907409117 -0.196121148988 0
28 1 1 -146.787410868 -0.196769510534 0
29 1 1 -146.668380344 -0.181546693631 0
30 1 1 -146.548587129 -0.174504988719 0
31 1 1 -146.428587129 -0.174511893031 0
32 1 1 -146.308610385 -0.172149506455 0
33 1 1 -146.189158338 -0.183604135263 0
34 1 1 -146.069415267 -0.191452507924 0
35 1 1 -145.950671333 -0.208769500231 0
36 1 1 -145.832564017 -0.229998297452 0
37 1 1 -145.71312216 -0.218437896815 0
38 1 1 -145.594168578 -0.202625073881 0
39 1 1 -145.474175087 -0.201375280317 0
40 1 1 -145.354735196 -0.212955975125 0
41 1 1 -145.234846988 -0.21813453994 0
42 1 1 -145.115012127 -0.224427871621 0
43 1 1 -144.996539206 -0.205344708092 0
44 1 1 -144.877735227 -0.188444574494 0
45 1 1 -144.760616458 -0.162306595365 0
46 1 1 -144.642598151 -0.140588417969 0
47 1 1 -144.526080352 -0.111889941111 0
48 1 1 -144.408034448 -0.0903222672703 0
49 1 1 -144.290068885 -0.0683194052444 0
50 1 1 -144.174717778 -0.0352418905898 0
51 1 1 -144.05644653 -0.014946276341 0
52 1 1 -143.939465926 0.0118032714599 0
53 1 1 -143.822027029 0.0364630671376 0
54 1 1 -143.704376173 0.0128352006757 0
55 1 1 -143.594134322 -0.0345645283797 0
56 1 1 -143.488960598 -0.0923441771873 0
57 1 1 -143.384541246 -0.151476223745 0
58 1 1 -143.273828489 -0.197765372519 0
59 1 1 -143.16332997 -0.244563633669 0
60 1 1 -143.05819297 -0.302410079509 0
61 1 1 -142.949562376 -0.353394332503 0
62 1 1 -142.843137042 -0.408834825361 0
63 1 1 -142.739248949 -0.468895329325 0
64 1 1 -142.64301624 -0.540584002279 0
65 1 1 -142.550533649 -0.617049486674 0
66 1 1 -142.468683254 -0.704802052586 0
67 1 1 -142.392259423 -0.79731906775 0
68 1 1 -142.335110545 -0.902836866032 0
69 1 1 -142.283749458 -1.01128979941 0
70 1 1 -142.245274552 -1.12495457675 0
71 1 1 -142.210369964 -1.23976602956 0
72 1 1 -142.18244288 -1.35647111933 0
73 1 1 -142.151459683 -1.47240231236 0
74 1 1 -142.114756543 -1.5866515115 0
75 1 1 -142.079509747 -1.70135836995 0
76 1 1 -142.026510413 -1.80902020458 0
77 1 1 -141.969289584 -1.91449900187 0
78 1 1 -141.884602269 -1.99951699215 0
79 1 1 -141.79040372 -2.0738583231 0
80 1 1 -141.700978802 -2.15387822001 0
81 1 1 -141.620988124 -2.2433292762 0
82 1 1 -141.547374519 -2.3380976106 0
83 1 1 -141.477238963 -2.43546805629 0
84 1 1 -141.416722689 -2.53909131942 0
85 1 1 -141.357744425 -2.64359760826 0
86 1 1 -141.291176754 -2.74344121123 0
87 1 1 -141.218308851 -2.83878411268 0
88 1 1 -141.141467892 -2.93095497009 0
89 1 1 -141.059872493 -3.01894469021 0
90 1 1 -140.969678729 -3.09809698009 0
91 1 1 -140.871830148 -3.167563916 0
92 1 1 -140.777844133 -3.24217376086 0
93 1 1 -140.691612335 -3.32562480596 0
94 1 1 -140.615759752 -3.41861075002 0
95 1 1 -140.547189483 -3.5170897738 0
96 1 1 -140.478762816 -3.6156686322 0
97 1 1 -140.420256856 -3.72044006226 0
98 1 1 -140.35222968 -3.81929502369 0
99 1 1 -140.279098036 -3.91443577545 0
100 1 1 -140.210728773 -4.01305445467 0
101 1 1 -140.132235083 -4.10382196267 0
102 1 1 -140.047695886 -4.18898723878 0
103 1 1 -139.962595689 -4.27359194612 0
104 1 1 -139.873889505 -4.35440786623 0
105 1 1 -139.775822718 -4.42356641723 0
106 1 1 -139.681271112 -4.49745818831 0
107 1 1 -139.58347082 -4.56699309301 0
108 1 1 -139.479502821 -4.62691516734 0
109 1 1 -139.371225692 -4.67864584875 0
110 1 1 -139.26299656 -4.73047687201 0
111 1 1 -139.150161491 -4.77132105457 0
112 1 1 -139.036448828 -4.8096542023 0
113 1 1 -138.918064296 -4.82927823535 0
114 1 1 -138.802756862 -4.86250767401 0
115 1 1 -138.689863171 -4.90318954584 0
116 1 1 -138.574678381 -4.93684164766 0
117 1 1 -138.458367586 -4.96636789083 0
118 1 1 -138.340609046 -4.98945308542 0
119 1 1 -138.221436478 -5.00352074714 0
120 1 1 -138.106844091 -5.03913794689 0
121 1 1 -137.990928846 -5.07018075358 0
122 1 1 -137.873731716 -5.09596510493 0
123 1 1 -137.756142204 -5.11989639439 0
124 1 1 -137.639066998 -5.146228811 0
125 1 1 -137.524860333 -5.18306408842 0
126 1 1 -137.423567003 -5.2474042886 0
127 1 1 -137.33798957 -5.33152624113 0
128 1 1 -137.255711577 -5.41887801173 0
129 1 1 -137.180859739 -5.51267141438 0
130 1 1 -137.119460491 -5.61577394769 0
131 1 1 -137.059862501 -5.71992806234 0
132 1 1 -136.987056532 -5.81531826537 0
133 1 1 -136.930681068 -5.92125129653 0
134 1 1 -136.855472551 -6.01475893758 0
135 1 1 -136.793321208 -6.11740985371 0
136 1 1 -136.734497711 -6.2220033345 0
137 1 1 -136.675054998 -6.32624614667 0
138 1 1 -136.621313887 -6.43353963639 0
139 1 1 -136.562403151 -6.53808400582 0
140 1 1 -136.490046774 -6.63381568649 0
141 1 1 -136.420445794 -6.73156896585 0
142 1 1 -136.364153849 -6.83754640185 0
143 1 1 -136.306256457 -6.94265535472 0
144 1 1 -136.251633326 -7.049502505 0
145 1 1 -136.199927311 -7.15779141503 0
146 1 1 -136.142827626 -7.26333584192 0
147 1 1 -136.083797578 -7.36781288929 0
148 1 1 -136.033056382 -7.47655722722 0
149 1 1 -136.00529304 -7.59330137838 0
150 1 1 -135.954109363 -7.7018381516 0
151 1 1 -135.913908784 -7.81490412111 0
152 1 1 -135.878898761 -7.92968346718 0
153 1 1 -135.828014049 -8.03836072382 0
154 1 1 -135.760781097 -8.13775755549 0
155 1 1 -135.688637877 -8.23364997352 0
156 1 1 -135.616306997 -8.32940092029 0
157 1 1 -135.544519736 -8.42556010659 0
158 1 1 -135.454204847 -8.50457416162 0
159 1 1 -135.352777045 -8.56870216659 0
160 1 1 -135.248014493 -8.6272240233 0
161 1 1 -135.137486551 -8.67395275038 0
162 1 1 -135.022589217 -8.70857359083 0
163 1 1 -134.909095312 -8.7475496554 0
164 1 1 -134.794059371 -8.78170711711 0
165 1 1 -134.674746429 -8.79452982882 0
166 1 1 -134.556414141 -8.81446646957 0
167 1 1 -134.443132777 -8.85405602072 0
168 1 1 -134.328112568 -8.88826642273 0
169 1 1 -134.219105393 -8.93844047694 0
170 1 1 -134.105579711 -8.97732388612 0
171 1 1 -134.002015581 -9.03794130158 0
172 1 1 -133.901584174 -9.10361879034 0
173 1 1 -133.806499694 -9.17682358276 0
174 1 1 -133.697074645 -9.22607963304 0
175 1 1 -133.58567623 -9.27069345724 0
176 1 1 -133.473602159 -9.31358171424 0
177 1 1 -133.362957884 -9.36003431719 0
178 1 1 -133.253195479 -9.40853395161 0
179 1 1 -133.143657003 -9.45753723879 0
180 1 1 -133.029321393 -9.49397030454 0
181 1 1 -132.916024015 -9.53351400558 0
182 1 1 -132.810255655 -9.59019781171 0
183 1 1 -132.715723319 -9.66411423379 0
184 1 1 -132.630110649 -9.7482003253 0
185 1 1 -132.537303604 -9.82427168893 0
186 1 1 -132.448811569 -9.90532204184 0
187 1 1 -132.355856994 -9.98121306249 0
188 1 1 -132.271861938 -10.0669150499 0
189 1 1 -132.196825144 -10.1605605494 0
190 1 1 -132.114337924 -10.2477147715 0
191 1 1 -132.02960632 -10.3326886219 0
192 1 1 -131.955381146 -10.4269787256 0
193 1 1 -131.870916207 -10.5122176483 0
194 1 1 -131.790617612 -10.6013923962 0
195 1 1 -131.715169705 -10.6947069896 0
196 1 1 -131.641312523 -10.789285617 0
197 1 1 -131.568756933 -10.884866401 0
198 1 1 -131.49936693 -10.9827695549 0
199 1 1 -131.435792992 -11.0845455561 0
200 1 1 -131.363853422 -11.1805908488 0
201 1 1 -131.292429555 -11.2770202593 0
202 1 1 -131.208821433 -11.3630997688 0
203 1 1 -131.122771281 -11.4467381052 0
204 1 1 -131.02534817 -11.5168004878 0
205 1 1 -130.925975774 -11.5840695507 0
206 1 1 -130.826769156 -11.6515828603 0
207 1 1 -130.734489775 -11.7282934581 0
208 1 1 -130.641144585 -11.8037035072 0
209 1 1 -130.55328366 -11.8854375751 0
210 1 1 -130.467529713 -11.9693795831 0
211 1 1 -130.369276294 -12.0382727292 0
212 1 1 -130.281673094 -12.1202829686 0
213 1 1 -130.183512521 -12.1893083393 0
214 1 1 -130.079072566 -12.2484039895 0
215 1 1 -129.972461185 -12.3034858689 0
216 1 1 -129.880237259 -12.3802631281 0
217 1 1 -129.783337451 -12.4510474992 0
218 1 1 -129.684049148 -12.5184406216 0
219 1 1 -129.574564109 -12.567563184 0
220 1 1 -129.46166743 -12.6082367602 0
221 1 1 -129.352642192 -12.6583715543 0
222 1 1 -129.242155145 -12.7051968943 0
223 1 1 -129.136641131 -12.7623527584 0
224 1 1 -129.030454834 -12.81824972 0
225 1 1 -128.924745325 -12.8750432039 0
226 1 1 -128.818303214 -12.9304514792 0
227 1 1 -128.705191086 -12.9705219977 0
228 1 1 -128.589930893 -13.0039149286 0
229 1 1 -128.472680119 -13.0294542349 0
230 1 1 -128.355112771 -13.0534941708 0
231 1 1 -128.241811698 -13.0930272815 0
232 1 1 -128.132355833 -13.1422148181 0
233 1 1 -128.026593452 -13.1989097795 0
234 1 1 -127.912406567 -13.2358063277 0
235 1 1 -127.80351145 -13.2862231254 0
236 1 1 -127.694416157 -13.3362052924 0
237 1 1 -127.586224183 -13.3881138366 0
238 1 1 -127.483434779 -13.4500358716 0
239 1 1 -127.40315277 -13.5392255514 0
240 1 1 -127.321493892 -13.6271563625 0
241 1 1 -127.229612591 -13.7043433214 0
242 1 1 -127.140817461 -13.7850615031 0
243 1 1 -127.051793078 -13.8655267707 0
244 1 1 -126.964818771 -13.9482036718 0
245 1 1 -126.886051438 -14.0387338165 0
246 1 1 -126.80785805 -14.1297601541 0
247 1 1 -126.728787198 -14.2200253211 0
248 1 1 -126.658513014 -14.3172957642 0
249 1 1 -126.598922276 -14.4214540279 0
250 1 1 -126.542381198 -14.5272987562 0
251 1 1 -126.518002099 -14.6447962436 0
252 1 1 -126.496167505 -14.7627930677 0
253 1 1 -126.479022542 -14.881561962 0
254 1 1 -126.479225176 -15.0015617909 0
255 1 1 -126.47885588 -15.1215612227 0
256 1 1 -126.493772469 -15.2406305107 0
257 1 1 -126.511212659 -15.3593564126 0
258 1 1 -126.504290836 -15.4791566145 0
259 1 1 -126.477111321 -15.5960380669 0
260 1 1 -126.448975032 -15.7126928965 0
261 1 1 -126.444062357 -15.8325922945 0
262 1 1 -126.418004184 -15.9497288457 0
263 1 1 -126.394172451 -16.0673385753 0
264 1 1 -126.36678358 -16.1841711467 0
265 1 1 -126.337939296 -16.300652936 0
266 1 1 -126.303632014 -16.4156442853 0
267 1 1 -126.276907062 -16.5326305109 0
268 1 1 -126.253147277 -16.6502547967 0
269 1 1 -126.214693811 -16.7639268291 0
270 1 1 -126.16995272 -16.8752741898 0
271 1 1 -126.131679255 -16.9890069551 0
272 1 1 -126.109606427 -17.1069594466 0
273 1 1 -126.078983426 -17.2229863048 0
274 1 1 -126.034291053 -17.3343532291 0
275 1 1 -125.99221122 -17.4467333324 0
276 1 1 -125.947975236 -17.5582823248 0
277 1 1 -125.917047655 -17.6742283671 0
278 1 1 -125.893136021 -17.7918218779 0
279 1 1 -125.873337363 -17.9101773305 0
280 1 1 -125.859753666 -18.0294060316 0
281 1 1 -125.826832906 -18.144801974 0
282 1 1 -125.79750207 -18.2611621996 0
283 1 1 -125.753069749 -18.3726331322 0
284 1 1 -125.712216727 -18.4854650008 0
285 1 1 -125.661027985 -18.5939993857 0
286 1 1 -125.616459142 -18.705415804 0
287 1 1 -125.571305102 -18.8165963446 0
288 1 1 -125.532521165 -18.930156048 0
289 1 1 -125.507273575 -19.0474699825 0
290 1 1 -125.494202676 -19.1667559901 0
291 1 1 -125.482782467 -19.2862113324 0
292 1 1 -125.461271327 -19.4042675515 0
293 1 1 -125.447190802 -19.5234386001 0
294 1 1 -125.417374294 -19.6396753234 0
295 1 1 -125.422205305 -19.7595780396 0
296 1 1 -125.412281988 -19.8791670349 0
297 1 1 -125.407318601 -19.9990643442 0
298 1 1 -125.402833298 -20.1189804901 0
299 1 1 -125.379510759 -20.2366922533 0
300 1 1 -125.345264918 -20.3517019154 0
301 1 1 -125.309625438 -20.4662873747 0
302 1 1 -125.260339623 -20.575699021 0
303 1 1 -125.222388115 -20.6895396249 0
304 1 1 -125.200905456 -20.8076010298 0
305 1 1 -125.165327296 -20.9222055434 0
306 1 1 -125.125458626 -21.0353889748 0
307 1 1 -125.070964408 -21.1423019313 0
308 1 1 -125.018787236 -21.2503646111 0
309 1 1 -124.998484296 -21.3686346014 0
310 1 1 -124.977931873 -21.4868614931 0
311 1 1 -124.970603447 -21.6066375097 0
312 1 1 -124.95783095 -21.7259558374 0
313 1 1 -124.96425741 -21.845783633 0
314 1 1 -124.958541805 -21.9656474384 0
315 1 1 -124.951534351 -22.085442662 0
316 1 1 -124.958212149 -22.2052567138 0
317 1 1 -124.963237225 -22.3251514536 0
318 1 1 -124.972609078 -22.4447849286 0
319 1 1 -124.9969817 -22.5622837597 0
320 1 1 -125.025190268 -22.6789211323 0
321 1 1 -125.057911355 -22.7943738519 0
322 1 1 -125.087440405 -22.9106839341 0
323 1 1 -125.11812487 -23.0266945527 0
324 1 1 -125.154264823 -23.1411231495 0
325 1 1 -125.188648889 -23.2560915627 0
326 1 1 -125.24046162 -23.3643294531 0
327 1 1 -125.301797109 -23.4674699285 0
328 1 1 -125.373427916 -23.5637457178 0
329 1 1 -125.453273751 -23.6533260876 0
330 1 1 -125.525614342 -23.7490696974 0
331 1 1 -125.598051939 -23.8447399363 0
332 1 1 -125.673964396 -23.9376770054 0
333 1 1 -125.753149306 -24.0278421322 0
334 1 1 -125.825198218 -24.1238054287 0
335 1 1 -125.891975132 -24.2235092082 0
336 1 1 -125.955081157 -24.3255759984 0
337 1 1 -126.024152192 -24.4237044453 0
338 1 1 -126.084269883 -24.5275594561 0
339 1 1 -126.154811713 -24.6246359735 0
340 1 1 -126.220142348 -24.7252933532 0
341 1 1 -126.292684856 -24.8208840668 0
342 1 1 -126.372803809 -24.9102202488 0
343 1 1 -126.449721381 -25.0023271816 0
344 1 1 -126.535355425 -25.0863915057 0
345 1 1 -126.626006111 -25.1650200827 0
346 1 1 -126.718600025 -25.2413507263 0
347 1 1 -126.807017184 -25.3224827537 0
348 1 1 -126.894530369 -25.4045890413 0
349 1 1 -126.989445997 -25.4780126321 0
350 1 1 -127.074587553 -25.562575717 0
351 1 1 -127.162001023 -25.6447881573 0
352 1 1 -127.2514828 -25.724744467 0
353 1 1 -127.328096021 -25.8171047098 0
354 1 1 -127.403650221 -25.9103332612 0
355 1 1 -127.490823977 -25.9927998377 0
356 1 1 -127.574382008 -26.0789279723 0
357 1 1 -127.659315906 -26.1636996242 0
358 1 1 -127.734364919 -26.257335331 0
359 1 1 -127.804546661 -26.3546724928 0
360 1 1 -127.874115288 -26.4524487994 0
361 1 1 -127.937945134 -26.5540645009 0
362 1 1 -127.995143254 -26.6595556144 0
363 1 1 -128.055058808 -26.7635273723 0
364 1 1 -128.090917978 -26.8780442704 0
365 1 1 -128.133088209 -26.9903904836 0
366 1 1 -128.177943712 -27.1016918034 0
367 1 1 -128.197000913 -27.2201689029 0
368 1 1 -128.186651306 -27.33972176 0
369 1 1 -128.177104868 -27.4593414303 0
370 1 1 -128.163716142 -27.578592183 0
371 1 1 -128.145048515 -27.6971312893 0
372 1 1 -128.118627693 -27.814186576 0
373 1 1 -128.08740094 -27.9300524032 0
374 1 1 -128.074210992 -28.0493253057 0
375 1 1 -128.063264853 -28.1688250213 0
376 1 1 -128.060478806 -28.2887926751 0
377 1 1 -128.056522733 -28.4087274469 0
378 1 1 -128.053842512 -28.5286975115 0
379 1 1 -128.045252424 -28.6483896599 0
380 1 1 -128.034183848 -28.7678780971 0
381 1 1 -128.024939814 -28.8875215166 0
382 1 1 -128.016194001 -29.0072023871 0
383 1 1 -128.019990526 -29.1271423154 0
384 1 1 -128.02383406 -29.2470807465 0
385 1 1 -128.045926299 -29.3650296039 0
386 1 1 -128.060067227 -29.4841935002 0
387 1 1 -128.07016326 -29.6037680381 0
388 1 1 -128.077834697 -29.7235225747 0
389 1 1 -128.086755818 -29.8431905053 0
390 1 1 -128.090048428 -29.9631453248 0
391 1 1 -128.09523099 -30.0830333603 0
392 1 1 -128.085638049 -30.2026493102 0
393 1 1 -128.06803064 -30.3213505281 0
394 1 1 -128.035381253 -30.4368235447 0
395 1 1 -128.02416935 -30.5562986184 0
396 1 1 -128.016609128 -30.6760602276 0
397 1 1 -127.996209764 -30.7943136248 0
398 1 1 -127.982728862 -30.9135539925 0
399 1 1 -127.960954081 -31.0315618689 0
400 1 1 -127.928412705 -31.1470653703 0
401 1 1 -127.919085661 -31.2667023473 0
402 1 1 -127.899045637 -31.3850171707 0
403 1 1 -127.884218898 -31.5040976805 0
404 1 1 -127.862676707 -31.6221482375 0
405 1 1 -127.84727497 -31.7411557435 0
406 1 1 -127.816907208 -31.8572496669 0
407 1 1 -127.794254582 -31.9750921828 0
408 1 1 -127.781961608 -32.0944608671 0
409 1 1 -127.791780371 -32.2140584921 0
410 1 1 -127.800033842 -32.3337743232 0
411 1 1 -127.807503663 -32.4535416049 0
412 1 1 -127.832530432 -32.5709028457 0
413 1 1 -127.867034867 -32.6858351909 0
414 1 1 -127.896451358 -32.8021737916 0
415 1 1 -127.925626903 -32.918573051 0
416 1 1 -127.945939915 -33.036841312 0
417 1 1 -127.971546212 -33.1540774734 0
418 1 1 -127.996452909 -33.2714642549 0
419 1 1 -128.026380281 -33.3876724833 0
420 1 1 -128.060749119 -33.5026454498 0
421 1 1 -128.100599109 -33.6158354596 0
422 1 1 -128.169578031 -33.7140286784 0
423 1 1 -128.232933094 -33.8159410723 0
424 1 1 -128.283850708 -33.9246029174 0
425 1 1 -128.328106465 -34.0361440665 0
426 1 1 -128.379902194 -34.1443900941 0
427 1 1 -128.437068379 -34.249898517 0
428 1 1 -128.481341355 -34.3614328327 0
429 1 1 -128.521867878 -34.4743823831 0
430 1 1 -128.552023973 -34.590531468 0
431 1 1 -128.5997248 -34.700643371 0
432 1 1 -128.666918245 -34.800066914 0
433 1 1 -128.728413929 -34.9031119569 0
434 1 1 -128.796484239 -35.0019372211 0
435 1 1 -128.878071644 -35.0899343534 0
436 1 1 -128.958678982 -35.178830119 0
437 1 1 -129.044545024 -35.2626574585 0
438 1 1 -129.130614801 -35.3462755988 0
439 1 1 -129.201041547 -35.4434356396 0
440 1 1 -129.271557589 -35.5405308905 0
441 1 1 -129.354981081 -35.6267893449 0
442 1 1 -129.437791649 -35.7136363941 0
443 1 1 -129.52770229 -35.7931101413 0
444 1 1 -129.623966972 -35.8647558748 0
445 1 1 -129.733743529 -35.9132234666 0
446 1 1 -129.841632223 -35.9657594519 0
447 1 1 -129.957560227 -35.9967545772 0
448 1 1 -130.071121717 -36.0355332843 0
449 1 1 -130.179228301 -36.0876194297 0
450 1 1 -130.287695401 -36.1389505904 0
451 1 1 -130.397604141 -36.1871176833 0
452 1 1 -130.507552154 -36.2351950641 0
453 1 1 -130.616095171 -36.2863655004 0
454 1 1 -130.723209479 -36.3404628666 0
455 1 1 -130.838982872 -36.3720305934 0
456 1 1 -130.956613608 -36.3957584226 0
457 1 1 -131.076172811 -36.4060344636 0
458 1 1 -131.195131479 -36.4218089799 0
459 1 1 -131.312423242 -36.4471593715 0
460 1 1 -131.432157195 -36.4551456295 0
461 1 1 -131.551431468 -36.4683231833 0
462 1 1 -131.670953813 -36.4790193958 0
463 1 1 -131.790761749 -36.4858060488 0
464 1 1 -131.909392587 -36.4677305366 0
465 1 1 -132.023883259 -36.4317877188 0
466 1 1 -132.139399156 -36.3992903737 0
467 1 1 -132.256498429 -36.3730651904 0
468 1 1 -132.374247239 -36.3499304162 0
469 1 1 -132.49261283 -36.3301924628 0
470 1 1 -132.611456279 -36.3135721545 0
471 1 1 -132.731024172 -36.3033977238 0
472 1 1 -132.850873884 -36.2973938484 0
473 1 1 -132.970854482 -36.299551614 0
474 1 1 -133.090770741 -36.2950693269 0
475 1 1 -133.210566639 -36.2880734081 0
476 1 1 -133.328217503 -36.2644455794 0
477 1 1 -133.444879288 -36.2363381439 0
478 1 1 -133.561320675 -36.2073311933 0
479 1 1 -133.673397038 -36.1644489254 0
480 1 1 -133.785655797 -36.1220464361 0
481 1 1 -133.899271722 -36.0834275099 0
482 1 1 -134.013754799 -36.0474605075 0
483 1 1 -134.125157249 -36.0028567618 0
484 1 1 -134.23687698 -35.9590537742 0
485 1 1 -134.349182859 -35.9167762454 0
486 1 1 -134.460814571 -35.872749425 0
487 1 1 -134.572178338 -35.8280491847 0
488 1 1 -134.677196994 -35.7699881676 0
489 1 1 -134.786657063 -35.7208099874 0
490 1 1 -134.902412108 -35.6891750473 0
491 1 1 -135.020823158 -35.6697116602 0
492 1 1 -135.139520246 -35.6520764358 0
493 1 1 -135.258439546 -35.636007827 0
494 1 1 -135.378432676 -35.6347238088 0
495 1 1 -135.498327081 -35.6397568625 0
496 1 1 -135.618304555 -35.6420819044 0
497 1 1 -135.737963701 -35.6511200916 0
498 1 1 -135.857951126 -35.6493829076 0
499 1 1 -135.977766167 -35.6560429271 0
500 1 1 -136.097748221 -35.6539676782 0
501 1 1 -136.216340812 -35.6356429027 0
502 1 1 -136.335040733 -35.6180267509 0
503 1 1 -136.453750879 -35.6004796374 0
504 1 1 -136.569235622 -35.5678717532 0
505 1 1 -136.684888908 -35.5358667941 0
506 1 1 -136.800194277 -35.5026301884 0
507 1 1 -136.916219036 -35.4719992337 0
508 1 1 -137.031331851 -35.4381017432 0
509 1 1 -137.149750193 -35.4186827763 0
510 1 1 -137.267543437 -35.3957753194 0
511 1 1 -137.385376724 -35.3730747383 0
512 1 1 -137.505003209 -35.3825354049 0
513 1 1 -137.622815754 -35.4053433888 0
514 1 1 -137.741120763 -35.4254412738 0
515 1 1 -137.859149106 -35.4471048412 0
516 1 1 -137.978214683 -35.4620510272 0
517 1 1 -138.096845691 -35.480125428 0
518 1 1 -138.211510659 -35.5155082614 0
519 1 1 -138.32542406 -35.5532407043 0
520 1 1 -138.441976502 -35.5817981603 0
521 1 1 -138.55686474 -35.616449174 0
522 1 1 -138.672971268 -35.6467687069 0
523 1 1 -138.791390278 -35.6661836023 0
524 1 1 -138.909812328 -35.6855799386 0
525 1 1 -139.028450584 -35.7036067043 0
526 1 1 -139.147411965 -35.6878526593 0
527 1 1 -139.267242306 -35.6814738429 0
528 1 1 -139.386619915 -35.6692678425 0
529 1 1 -139.505353141 -35.6518775872 0
530 1 1 -139.624826146 -35.6631115126 0
531 1 1 -139.744777493 -35.6665283187 0
532 1 1 -139.864682968 -35.6617662953 0
533 1 1 -139.984656861 -35.6642692964 0
534 1 1 -140.104645307 -35.6626041015 0
535 1 1 -140.222815227 -35.6417265995 0
536 1 1 -140.341305826 -35.6227535186 0
537 1 1 -140.460565022 -35.6094402043 0
538 1 1 -140.580437121 -35.6039012741 0
539 1 1 -140.6999883 -35.6142702505 0
540 1 1 -140.818247764 -35.6346344141 0
541 1 1 -140.938209579 -35.631607392 0
542 1 1 -141.056832083 -35.6497375249 0
543 1 1 -141.176624734 -35.6567888121 0
544 1 1 -141.296623745 -35.6563016294 0
545 1 1 -141.416601808 -35.6585960763 0
546 1 1 -141.533057892 -35.6296481845 0
547 1 1 -141.646592283 -35.590790212 0
548 1 1 -141.757310462 -35.5445140323 0
549 1 1 -141.870927377 -35.5058980163 0
550 1 1 -141.986587916 -35.473919277 0
551 1 1 -142.104257647 -35.4503855922 0
552 1 1 -142.218386071 -35.413308605 0
553 1 1 -142.333474492 -35.3793283873 0
554 1 1 -142.446215468 -35.3382251964 0
555 1 1 -142.554603975 -35.2867282871 0
556 1 1 -142.667653419 -35.2464812589 0
557 1 1 -142.780266294 -35.2050283912 0
558 1 1 -142.897332414 -35.1786556113 0
559 1 1 -143.015653305 -35.1586514436 0
560 1 1 -143.135642367 -35.1570312468 0
561 1 1 -143.255282209 -35.1663214718 0
562 1 1 -143.375272686 -35.1648097457 0
563 1 1 -143.494610213 -35.1774015965 0
564 1 1 -143.61130383 -35.2053765818 0
565 1 1 -143.730283866 -35.2209891071 0
566 1 1 -143.842169923 -35.2643654866 0
567 1 1 -143.955485624 -35.3038566503 0
568 1 1 -144.070783378 -35.3371196619 0
569 1 1 -144.185458866 -35.3724683872 0
570 1 1 -144.299554499 -35.4096461569 0
571 1 1 -144.415394544 -35.4409684144 0
572 1 1 -144.527996547 -35.4824508098 0
573 1 1 -144.64543259 -35.507124188 0
574 1 1 -144.763834156 -35.526645184 0
575 1 1 -144.883031937 -35.5404975874 0
576 1 1 -145.002352083 -35.553253079 0
577 1 1 -145.119686732 -35.5784042252 0
578 1 1 -145.238323715 -35.5964393689 0
579 1 1 -145.35832097 -35.5972509997 0
580 1 1 -145.47832085 -35.5970811662 0
581 1 1 -145.597838786 -35.6078265324 0
582 1 1 -145.717684809 -35.6139036101 0
583 1 1 -145.837661807 -35.6162530535 0
584 1 1 -145.957660452 -35.6156828929 0
585 1 1 -146.076846989 -35.6296317095 0
586 1 1 -146.196220089 -35.6418817351 0
587 1 1 -146.316026082 -35.6487025893 0
588 1 1 -146.43584215 -35.655344109 0
589 1 1 -146.553713404 -35.6778467168 0
590 1 1 -146.671620918 -35.7001585596 0
591 1 1 -146.7853489 -35.7384462331 0
592 1 1 -146.900838532 -35.7710367971 0
593 1 1 -147.015976004 -35.8048504413 0
594 1 1 -147.134493015 -35.8236578376 0
595 1 1 -147.252190769 -35.8470509706 0
596 1 1 -147.370543354 -35.8668667662 0
597 1 1 -147.490529755 -35.8650602442 0
598 1 1 -147.610049773 -35.8543380553 0
599 1 1 -147.72817929 -35.8332331456 0
600 1 1 -147.848158907 -35.8310214653 0
601 1 1 -147.965697118 -35.8068394715 0
602 1 1 -148.081520792 -35.775456726 0
603 1 1 -148.200441104 -35.7593956162 0
604 1 1 -148.319432345 -35.7438687189 0
605 1 1 -148.432031916 -35.7023797241 0
606 1 1 -148.548775716 -35.6746149047 0
607 1 1 -148.664696015 -35.6435909734 0
608 1 1 -148.781997347 -35.6182848962 0
609 1 1 -148.900649038 -35.6003467746 0
610 1 1 -149.019310161 -35.5824711559 0
611 1 1 -149.139108181 -35.5755116716 0
612 1 1 -149.258575718 -35.5642197393 0
613 1 1 -149.377844527 -35.5509928353 0
614 1 1 -149.495187073 -35.5258785545 0
615 1 1 -149.613439499 -35.5054735643 0
616 1 1 -149.730667796 -35.4798312873 0
617 1 1 -149.849980268 -35.4670042041 0
618 1 1 -149.969802326 -35.4604716305 0
619 1 1 -150.089669402 -35.4548250437 0
620 1 1 -150.209667086 -35.4540794012 0
621 1 1 -150.327453634 -35.4311375386 0
622 1 1 -150.442500197 -35.3970158694 0
623 1 1 -150.55331665 -35.350975521 0
624 1 1 -150.669096441 -35.3194312649 0
625 1 1 -150.788255106 -35.3052463275 0
626 1 1 -150.907789082 -35.3158117686 0
627 1 1 -151.02761676 -35.322240428 0
628 1 1 -151.147070737 -35.3108059456 0
629 1 1 -151.266853705 -35.3035920324 0
630 1 1 -151.385253514 -35.3231236805 0
631 1 1 -151.502352314 -35.3493509756 0
632 1 1 -151.620899104 -35.3679697473 0
633 1 1 -151.740094712 -35.3818408317 0
634 1 1 -151.859164488 -35.3967535271 0
635 1 1 -151.975593987 -35.4258081601 0
636 1 1 -152.092549752 -35.452666102 0
637 1 1 -152.203330567 -35.4987921366 0
638 1 1 -152.319377436 -35.5293392172 0
639 1 1 -152.426919262 -35.582581642 0
640 1 1 -152.531171431 -35.6420079431 0
641 1 1 -152.642257985 -35.6873927144 0
642 1 1 -152.747752972 -35.7445836901 0
643 1 1 -152.862287234 -35.7803873612 0
644 1 1 -152.97595677 -35.8188482041 0
645 1 1 -153.08726342 -35.8636904807 0
646 1 1 -153.199876044 -35.9051440309 0
647 1 1 -153.311947582 -35.9480389082 0
648 1 1 -153.426318048 -35.9843624068 0
649 1 1 -153.541770768 -36.0170834916 0
650 1 1 -153.661247186 -36.0282810604 0
651 1 1 -153.78108943 -36.0344322006 0
652 1 1 -153.901018223 -36.0385655391 0
653 1 1 -154.019216625 -36.0178498981 0
654 1 1 -154.139209743 -36.0191351181 0
655 1 1 -154.259028852 -36.0257215426 0
656 1 1 -154.378815571 -36.0185701863 0
657 1 1 -154.496887373 -35.9971447418 0
658 1 1 -154.609163231 -35.9547875512 0
659 1 1 -154.720830391 -35.9108507165 0
660 1 1 -154.827788096 -35.85644438 0
661 1 1 -154.928463007 -35.7911407636 0
662 1 1 -155.029626447 -35.7265965282 0
663 1 1 -155.134249399 -35.6678254641 0
664 1 1 -155.245487146 -35.6228125386 0
665 1 1 -155.351271241 -35.5661581014 0
666 1 1 -155.449049405 -35.4965920842 0
667 1 1 -155.550743531 -35.4328872597 0
668 1 1 -155.654301574 -35.3722594456 0
669 1 1 -155.758761525 -35.3131991502 0
670 1 1 -155.858359073 -35.2462638936 0
671 1 1 -155.952380445 -35.1716986099 0
672 1 1 -156.032645643 -35.0824938005 0
673 1 1 -156.089728881 -34.9769404776 0
674 1 1 -156.153029839 -34.8749944691 0
675 1 1 -156.218708971 -34.774564137 0
676 1 1 -156.276439304 -34.6693633351 0
677 1 1 -156.330880243 -34.5624232393 0
678 1 1 -156.38879555 -34.4573241563 0
679 1 1 -156.438208795 -34.3479700012 0
680 1 1 -156.493335593 -34.2413818401 0
681 1 1 -156.55657976 -34.1394005903 0
682 1 1 -156.614750579 -34.0344427134 0
683 1 1 -156.675028655 -33.9306807094 0
684 1 1 -156.738189658 -33.8286479314 0
685 1 1 -156.777612251 -33.715308357 0
686 1 1 -156.816967664 -33.6019454377 0
687 1 1 -156.860935262 -33.4902903871 0
688 1 1 -156.911823832 -33.3816149368 0
689 1 1 -156.955099698 -33.2696899647 0
690 1 1 -157.007114236 -33.1615489095 0
691 1 1 -157.058151605 -33.0529432606 0
692 1 1 -157.102842999 -32.9415759437 0
693 1 1 -157.149611277 -32.8310647305 0
694 1 1 -157.20980064 -32.7272512413 0
695 1 1 -157.274353655 -32.6260934031 0
696 1 1 -157.3380809 -32.5244133251 0
697 1 1 -157.4188776 -32.4356896349 0
698 1 1 -157.476772272 -32.3305791832 0
699 1 1 -157.533284012 -32.2247187884 0
700 1 1 -157.589451767 -32.1186754796 0
701 1 1 -157.624631892 -32.0039481561 0
702 1 1 -157.653699492 -31.8875218935 0
703 1 1 -157.689339038 -31.7729364548 0
704 1 1 -157.735821999 -31.6623049296 0
705 1 1 -157.798839818 -31.5601836559 0
706 1 1 -157.853059326 -31.4531311226 0
707 1 1 -157.924064966 -31.3563933368 0
708 1 1 -158.009172524 -31.2717960344 0
709 1 1 -158.091905101 -31.1848746868 0
710 1 1 -158.183163052 -31.1069517359 0
711 1 1 -158.292695637 -31.0579352805 0
712 1 1 -158.411248803 -31.0393571539 0
713 1 1 -158.531106806 -31.0451931701 0
714 1 1 -158.646102962 -31.0794843359 0
715 1 1 -158.763281077 -31.1053549672 0
716 1 1 -158.877175779 -31.1431438116 0
717 1 1 -158.991582915 -31.1793516471 0
718 1 1 -159.101492431 -31.2275169691 0
719 1 1 -159.211617048 -31.2751884359 0
720 1 1 -159.32361363 -31.3182786378 0
721 1 1 -159.44229849 -31.3359959783 0
722 1 1 -159.562278981 -31.3381597109 0
723 1 1 -159.682191335 -31.3427452547 0
724 1 1 -159.8021682 -31.3403890154 0
725 1 1 -159.921722928 -31.3507169931 0
726 1 1 -160.041636737 -31.3461696379 0
727 1 1 -160.16136252 -31.3380618126 0
728 1 1 -160.281355545 -31.3367680256 0
729 1 1 -160.401320629 -31.3396626408 0
730 1 1 -160.520645829 -31.352370774 0
731 1 1 -160.63786466 -31.378056288 0
732 1 1 -160.756748879 -31.3943824176 0
733 1 1 -160.874676327 -31.4165886533 0
734 1 1 -160.991444591 -31.4442504038 0
735 1 1 -161.106027499 -31.4798980857 0
736 1 1 -161.221170432 -31.5136931284 0
737 1 1 -161.336473844 -31.5469365229 0
738 1 1 -161.454180621 -31.570284215 0
739 1 1 -161.57350642 -31.5829867163 0
740 1 1 -161.691679685 -31.6038452738 0
741 1 1 -161.809823916 -31.6248676633 0
742 1 1 -161.928743523 -31.6409339926 0
743 1 1 -162.047916613 -31.6549972347 0
744 1 1 -162.167754097 -31.6612404138 0
745 1 1 -162.287105222 -31.6487781135 0
746 1 1 -162.406316668 -31.6350438018 0
747 1 1 -162.523030711 -31.6071541619 0
748 1 1 -162.641238984 -31.5864949214 0
749 1 1 -162.758756063 -31.5622104348 0
750 1 1 -162.87690067 -31.5411901637 0