#Actin filament

53 atoms
52 bonds
51 angles

1 atom types
3 bond types
1 angle types

-500 500 xlo xhi
-500 500 ylo yhi
-0.05 0.05 zlo zhi

Masses

1 1


Atoms

1 1 1 -150 0 0
2 1 1 -146.261065112 -0.287864381113 0
3 1 1 -142.554142236 -0.854629582586 0
4 1 1 -138.923745883 -1.79416261455 0
5 1 1 -135.319130315 -2.82820642642 0
6 1 1 -131.668021268 -3.68371956443 0
7 1 1 -128.112905221 -4.87688757165 0
8 1 1 -124.465894281 -5.7497055382 0
9 1 1 -120.839198001 -6.70342147696 0
10 1 1 -117.177232336 -7.51120081995 0
11 1 1 -113.479584696 -8.13562209758 0
12 1 1 -109.866971867 -9.14136985459 0
13 1 1 -106.487734198 -10.7671781987 0
14 1 1 -103.211850688 -12.5923048327 0
15 1 1 -99.8453280772 -14.2442810773 0
16 1 1 -96.5927273603 -16.1105845297 0
17 1 1 -93.3191802371 -17.9398983989 0
18 1 1 -90.0183622835 -19.7195334282 0
19 1 1 -86.5563837935 -21.1607845979 0
20 1 1 -83.0360989019 -22.4531058747 0
21 1 1 -79.5721273044 -23.8895601106 0
22 1 1 -75.9765648719 -24.954656723 0
23 1 1 -72.3808651846 -26.01928988 0
24 1 1 -68.9358220815 -27.5005656874 0
25 1 1 -65.6942394415 -29.3859415089 0
26 1 1 -62.223546321 -30.8060785669 0
27 1 1 -58.9406068938 -32.6184826932 0
28 1 1 -55.7792738199 -34.6355283536 0
29 1 1 -52.5831164826 -36.5969253749 0
30 1 1 -49.4544268973 -38.6642428345 0
31 1 1 -46.3675918174 -40.7935500432 0
32 1 1 -43.0780049125 -42.5938605707 0
33 1 1 -39.636264217 -44.082793405 0
34 1 1 -35.9632682915 -44.8388363478 0
35 1 1 -32.2971887965 -45.6277350332 0
36 1 1 -28.6868677667 -46.6416788491 0
37 1 1 -25.1355531005 -47.8461140454 0
38 1 1 -21.7700769313 -49.5002211019 0
39 1 1 -18.1978908275 -50.6412673061 0
40 1 1 -14.8516064527 -52.3338632067 0
41 1 1 -11.4823372539 -53.9802304396 0
42 1 1 -8.03098028582 -55.4467348137 0
43 1 1 -4.4839278123 -56.6636648651 0
44 1 1 -0.88651455064 -57.7224933804 0
45 1 1 2.71903892155 -58.7532621029 0
46 1 1 6.41981393388 -59.3588727931 0
47 1 1 9.97401314332 -60.5547691012 0
48 1 1 13.6813953942 -61.11852157 0
49 1 1 17.4308001564 -61.0517089322 0
50 1 1 21.1793684333 -61.1553229935 0
51 1 1 24.9242886236 -61.3504454388 0
52 1 1 28.6461318721 -61.8091205231 0
53 1 1 32.3435718428 -62.4347703163 0


Bonds

0 1 1 2
1 2 2 3
2 3 3 4
3 1 4 5
4 2 5 6
5 3 6 7
6 1 7 8
7 2 8 9
8 3 9 10
9 1 10 11
10 2 11 12
11 3 12 13
12 1 13 14
13 2 14 15
14 3 15 16
15 1 16 17
16 2 17 18
17 3 18 19
18 1 19 20
19 2 20 21
20 3 21 22
21 1 22 23
22 2 23 24
23 3 24 25
24 1 25 26
25 2 26 27
26 3 27 28
27 1 28 29
28 2 29 30
29 3 30 31
30 1 31 32
31 2 32 33
32 3 33 34
33 1 34 35
34 2 35 36
35 3 36 37
36 1 37 38
37 2 38 39
38 3 39 40
39 1 40 41
40 2 41 42
41 3 42 43
42 1 43 44
43 2 44 45
44 3 45 46
45 1 46 47
46 2 47 48
47 3 48 49
48 1 49 50
49 2 50 51
50 3 51 52
51 1 52 53


Angles

1 1 1 2 3
2 1 2 3 4
3 1 3 4 5
4 1 4 5 6
5 1 5 6 7
6 1 6 7 8
7 1 7 8 9
8 1 8 9 10
9 1 9 10 11
10 1 10 11 12
11 1 11 12 13
12 1 12 13 14
13 1 13 14 15
14 1 14 15 16
15 1 15 16 17
16 1 16 17 18
17 1 17 18 19
18 1 18 19 20
19 1 19 20 21
20 1 20 21 22
21 1 21 22 23
22 1 22 23 24
23 1 23 24 25
24 1 24 25 26
25 1 25 26 27
26 1 26 27 28
27 1 27 28 29
28 1 28 29 30
29 1 29 30 31
30 1 30 31 32
31 1 31 32 33
32 1 32 33 34
33 1 33 34 35
34 1 34 35 36
35 1 35 36 37
36 1 36 37 38
37 1 37 38 39
38 1 38 39 40
39 1 39 40 41
40 1 40 41 42
41 1 41 42 43
42 1 42 43 44
43 1 43 44 45
44 1 44 45 46
45 1 45 46 47
46 1 46 47 48
47 1 47 48 49
48 1 48 49 50
49 1 49 50 51
50 1 50 51 52
51 1 51 52 53
