#Actin filament

21 atoms
20 bonds
19 angles

1 atom types
3 bond types
1 angle types

-500 500 xlo xhi
-500 500 ylo yhi
-0.05 0.05 zlo zhi

Masses

1 1


Atoms

1 1 1 -150 0 0
2 1 1 -140.534340939 0.807030692852 0
3 1 1 -131.035196728 0.679518923943 0
4 1 1 -121.541879312 0.323254350579 0
5 1 1 -112.048814112 0.686177348323 0
6 1 1 -102.554223802 0.365623372569 0
7 1 1 -93.0875785396 -0.429755453777 0
8 1 1 -83.6513159485 -1.52836744699 0
9 1 1 -74.2029386962 -2.51739085351 0
10 1 1 -64.9438259925 -4.64314529392 0
11 1 1 -55.506194365 -5.72993380303 0
12 1 1 -46.0551929789 -6.6935586257 0
13 1 1 -36.6417472968 -7.97302741847 0
14 1 1 -27.444263771 -10.3513244546 0
15 1 1 -18.7726956696 -14.2312608797 0
16 1 1 -10.2076790566 -18.3410650623 0
17 1 1 -1.91234733693 -22.9711267963 0
18 1 1 6.31160811068 -27.7268135811 0
19 1 1 14.1977860923 -33.0238124336 0
20 1 1 21.9221250431 -38.5541458568 0
21 1 1 30.1925018032 -43.2286370854 0


Bonds

0 1 1 2
1 2 2 3
2 3 3 4
3 1 4 5
4 2 5 6
5 3 6 7
6 1 7 8
7 2 8 9
8 3 9 10
9 1 10 11
10 2 11 12
11 3 12 13
12 1 13 14
13 2 14 15
14 3 15 16
15 1 16 17
16 2 17 18
17 3 18 19
18 1 19 20
19 2 20 21


Angles

1 1 1 2 3
2 1 2 3 4
3 1 3 4 5
4 1 4 5 6
5 1 5 6 7
6 1 6 7 8
7 1 7 8 9
8 1 8 9 10
9 1 9 10 11
10 1 10 11 12
11 1 11 12 13
12 1 12 13 14
13 1 13 14 15
14 1 14 15 16
15 1 15 16 17
16 1 16 17 18
17 1 17 18 19
18 1 18 19 20
19 1 19 20 21
