#Actin filament

29 atoms
28 bonds
27 angles

1 atom types
3 bond types
1 angle types

-500 500 xlo xhi
-500 500 ylo yhi
-0.05 0.05 zlo zhi

Masses

1 1


Atoms

1 1 1 -150 0 0
2 1 1 -143.269917201 -0.518155886004 0
3 1 1 -136.597456025 -1.53833324865 0
4 1 1 -130.062742589 -3.2294927062 0
5 1 1 -123.574434566 -5.09077156756 0
6 1 1 -117.002438282 -6.63069521598 0
7 1 1 -110.603229398 -8.77839762897 0
8 1 1 -104.038609706 -10.3494699688 0
9 1 1 -97.5105564015 -12.0661586585 0
10 1 1 -90.9190182041 -13.5201614759 0
11 1 1 -84.2632524525 -14.6441197756 0
12 1 1 -77.7605493611 -16.4544657383 0
13 1 1 -71.6779215556 -19.3809207576 0
14 1 1 -65.781331238 -22.6661486989 0
15 1 1 -59.721590539 -25.6397059392 0
16 1 1 -53.8669092486 -28.9990521535 0
17 1 1 -47.9745244267 -32.2918171179 0
18 1 1 -42.0330521103 -35.4951601707 0
19 1 1 -35.8014908282 -38.0894122762 0
20 1 1 -29.4649780235 -40.4155905745 0
21 1 1 -23.229829148 -43.0012081991 0
22 1 1 -16.7578167694 -44.9183821013 0
23 1 1 -10.2855573324 -46.8347217841 0
24 1 1 -4.08447974671 -49.5010182373 0
25 1 1 1.75036900528 -52.894694716 0
26 1 1 7.99761662212 -55.4509414204 0
27 1 1 13.9069075911 -58.7132688477 0
28 1 1 19.5973071241 -62.3439510364 0
29 1 1 25.3503903313 -65.8744656748 0


Bonds

0 1 1 2
1 2 2 3
2 3 3 4
3 1 4 5
4 2 5 6
5 3 6 7
6 1 7 8
7 2 8 9
8 3 9 10
9 1 10 11
10 2 11 12
11 3 12 13
12 1 13 14
13 2 14 15
14 3 15 16
15 1 16 17
16 2 17 18
17 3 18 19
18 1 19 20
19 2 20 21
20 3 21 22
21 1 22 23
22 2 23 24
23 3 24 25
24 1 25 26
25 2 26 27
26 3 27 28
27 1 28 29


Angles

1 1 1 2 3
2 1 2 3 4
3 1 3 4 5
4 1 4 5 6
5 1 5 6 7
6 1 6 7 8
7 1 7 8 9
8 1 8 9 10
9 1 9 10 11
10 1 10 11 12
11 1 11 12 13
12 1 12 13 14
13 1 13 14 15
14 1 14 15 16
15 1 15 16 17
16 1 16 17 18
17 1 17 18 19
18 1 18 19 20
19 1 19 20 21
20 1 20 21 22
21 1 21 22 23
22 1 22 23 24
23 1 23 24 25
24 1 24 25 26
25 1 25 26 27
26 1 26 27 28
27 1 27 28 29
