#Actin filament

200 atoms
199 bonds
198 angles

1 atom types
3 bond types
1 angle types

-500 500 xlo xhi
-500 500 ylo yhi
-0.05 0.05 zlo zhi

Masses

1 1


Atoms

1 1 1 -150 0 0
2 1 1 -149.000420515 -0.0289974605038 0
3 1 1 -148.000765215 -0.00274327441379 0
4 1 1 -147.012339998 0.148965626012 0
5 1 1 -146.074747548 0.496701729671 0
6 1 1 -145.183183395 0.949596154035 0
7 1 1 -144.286550317 1.39237050338 0
8 1 1 -143.406809521 1.86782411018 0
9 1 1 -142.580723988 2.4313688665 0
10 1 1 -141.677706776 2.86097323662 0
11 1 1 -140.802367254 3.34448199538 0
12 1 1 -139.825542894 3.55852444694 0
13 1 1 -138.850440602 3.78027998614 0
14 1 1 -137.885043833 4.04106549012 0
15 1 1 -136.968150532 4.4401978923 0
16 1 1 -136.030057626 4.78658163863 0
17 1 1 -135.05305709 4.99981848273 0
18 1 1 -134.100556245 5.30435442503 0
19 1 1 -133.198034822 5.73499938587 0
20 1 1 -132.309856706 6.1944987144 0
21 1 1 -131.396581713 6.60184228836 0
22 1 1 -130.474162999 6.98803358475 0
23 1 1 -129.535928073 7.33403246318 0
24 1 1 -128.562794324 7.56427300277 0
25 1 1 -127.604443211 7.84986562103 0
26 1 1 -126.648482159 8.14335917638 0
27 1 1 -125.673973434 8.36770878299 0
28 1 1 -124.689607121 8.54384214252 0
29 1 1 -123.690385016 8.58327797466 0
30 1 1 -122.69111861 8.62157484969 0
31 1 1 -121.69137641 8.59886950708 0
32 1 1 -120.694006669 8.67135123717 0
33 1 1 -119.698851159 8.76966456287 0
34 1 1 -118.703713598 8.86815941122 0
35 1 1 -117.718116786 8.6990472483 0
36 1 1 -116.733545838 8.52406139432 0
37 1 1 -115.764234514 8.27822495194 0
38 1 1 -114.779039732 8.10678621184 0
39 1 1 -113.812966801 7.84851679463 0
40 1 1 -112.895638138 7.45038600622 0
41 1 1 -111.955463443 7.10969326553 0
42 1 1 -111.060603188 6.66334684897 0
43 1 1 -110.133377148 6.28884468649 0
44 1 1 -109.179313655 5.98924019474 0
45 1 1 -108.217882101 5.7141958952 0
46 1 1 -107.274812583 5.381600216 0
47 1 1 -106.317039042 5.09407657522 0
48 1 1 -105.346516687 4.85306545949 0
49 1 1 -104.36576576 4.6578025112 0
50 1 1 -103.417402654 4.34061578509 0
51 1 1 -102.427161273 4.2012529216 0
52 1 1 -101.447423217 4.00096976881 0
53 1 1 -100.460049052 3.84256440807 0
54 1 1 -99.4654363211 3.73890382985 0
55 1 1 -98.4836403514 3.54896522454 0
56 1 1 -97.5044525078 3.34600915282 0
57 1 1 -96.5124078556 3.22012266466 0
58 1 1 -95.5242605522 3.06661401039 0
59 1 1 -94.5377050699 2.90318732847 0
60 1 1 -93.5446312863 2.78569494494 0
61 1 1 -92.5539337777 2.64961244625 0
62 1 1 -91.5539371221 2.64702617615 0
63 1 1 -90.5626365152 2.51540890219 0
64 1 1 -89.56757174 2.41618142006 0
65 1 1 -88.5713633944 2.32918181003 0
66 1 1 -87.605040148 2.07185053834 0
67 1 1 -86.6280557879 1.85853959144 0
68 1 1 -85.6705829206 1.57001626757 0
69 1 1 -84.6932536989 1.35829099149 0
70 1 1 -83.7134340721 1.15840727818 0
71 1 1 -82.7249160608 1.00730419625 0
72 1 1 -81.7254888731 0.973461967413 0
73 1 1 -80.7286406311 1.0527940702 0
74 1 1 -79.743969437 1.22721493878 0
75 1 1 -78.7602720536 1.40704668778 0
76 1 1 -77.7788003613 1.59865388285 0
77 1 1 -76.7805471382 1.65773435839 0
78 1 1 -75.7824824072 1.59555081723 0
79 1 1 -74.7887224855 1.48401060976 0
80 1 1 -73.8096483411 1.28050675295 0
81 1 1 -72.8585655475 0.971570643257 0
82 1 1 -71.9575930481 0.537694445247 0
83 1 1 -71.1160948969 -0.00256554916118 0
84 1 1 -70.2500749052 -0.502574923031 0
85 1 1 -69.4499995494 -1.10247443547 0
86 1 1 -68.6303242641 -1.67530287985 0
87 1 1 -67.8911290515 -2.34879411044 0
88 1 1 -67.1692961381 -3.04086148078 0
89 1 1 -66.4384943257 -3.72345118997 0
90 1 1 -65.7116757108 -4.41028064547 0
91 1 1 -65.0915318188 -5.19476872908 0
92 1 1 -64.6282655105 -6.08098784848 0
93 1 1 -64.1963933151 -6.98292266145 0
94 1 1 -63.8786558281 -7.9311013837 0
95 1 1 -63.5547740531 -8.87719894516 0
96 1 1 -63.2502617984 -9.82970736336 0
97 1 1 -62.9450281615 -10.781984858 0
98 1 1 -62.6151168539 -11.7259967908 0
99 1 1 -62.3252951303 -12.6830774397 0
100 1 1 -62.1978666637 -13.6749252032 0
101 1 1 -62.0717674289 -14.6669428356 0
102 1 1 -61.8211351256 -15.6350251919 0
103 1 1 -61.7930660699 -16.6346311783 0
104 1 1 -61.5874457164 -17.6132630142 0
105 1 1 -61.5156544161 -18.6106826897 0
106 1 1 -61.5167392687 -19.6106821013 0
107 1 1 -61.4242301622 -20.6063939397 0
108 1 1 -61.2843530413 -21.5965628097 0
109 1 1 -61.3024529085 -22.5963989937 0
110 1 1 -61.3626123796 -23.5945877725 0
111 1 1 -61.5828844182 -24.5700262528 0
112 1 1 -61.7255566378 -25.5597962452 0
113 1 1 -61.7735388795 -26.5586444341 0
114 1 1 -61.8150490208 -27.5577825167 0
115 1 1 -61.7991528875 -28.5576561652 0
116 1 1 -61.7530927289 -29.5565948329 0
117 1 1 -61.7397145911 -30.5565053416 0
118 1 1 -61.8017181297 -31.5545812712 0
119 1 1 -61.7086227082 -32.5502384624 0
120 1 1 -61.7273470833 -33.5500631459 0
121 1 1 -61.7390688862 -34.5499944433 0
122 1 1 -61.7855632984 -35.5489129933 0
123 1 1 -61.8435178385 -36.5472322164 0
124 1 1 -61.8248114918 -37.5470572374 0
125 1 1 -62.0315874241 -38.5254455621 0
126 1 1 -62.1048420974 -39.5227588292 0
127 1 1 -62.225382005 -40.5154673115 0
128 1 1 -62.397035597 -41.5006246818 0
129 1 1 -62.533526484 -42.4912660083 0
130 1 1 -62.6535457844 -43.4840375669 0
131 1 1 -62.6676117297 -44.4839386366 0
132 1 1 -62.5989650391 -45.4815796702 0
133 1 1 -62.4791736907 -46.47437876 0
134 1 1 -62.3562277851 -47.4667921337 0
135 1 1 -62.1848308218 -48.4519941846 0
136 1 1 -62.2433330351 -49.4502814634 0
137 1 1 -62.4190907657 -50.4347149147 0
138 1 1 -62.5536909305 -51.4256149075 0
139 1 1 -62.6808214598 -52.4175009032 0
140 1 1 -62.8125457537 -53.4087872949 0
141 1 1 -62.8974625082 -54.4051753442 0
142 1 1 -63.0236077588 -55.3971871263 0
143 1 1 -63.2062601831 -56.3803646748 0
144 1 1 -63.3428250029 -57.370995812 0
145 1 1 -63.295240413 -58.3698630238 0
146 1 1 -63.0395369798 -59.3366182949 0
147 1 1 -62.7008370767 -60.27751275 0
148 1 1 -62.4211803971 -61.2376128185 0
149 1 1 -62.0261462791 -62.1562792681 0
150 1 1 -61.7529697007 -63.1182431744 0
151 1 1 -61.4153376792 -64.0595213576 0
152 1 1 -61.0437294696 -64.9879110056 0
153 1 1 -60.5538015298 -65.85967394 0
154 1 1 -60.069508694 -66.7345799059 0
155 1 1 -59.4637528736 -67.5302305114 0
156 1 1 -58.8676390803 -68.3331304712 0
157 1 1 -58.3431362601 -69.1845391813 0
158 1 1 -57.7732868156 -70.0062882979 0
159 1 1 -57.2715410931 -70.8713034596 0
160 1 1 -56.7821283848 -71.7433557521 0
161 1 1 -56.1752994935 -72.5381882481 0
162 1 1 -55.6047985468 -73.3594851919 0
163 1 1 -55.0667897635 -74.202424424 0
164 1 1 -54.382810995 -74.9319263392 0
165 1 1 -53.7293460418 -75.6888831113 0
166 1 1 -53.1373614193 -76.4948323695 0
167 1 1 -52.5526852562 -77.306099147 0
168 1 1 -51.9713109994 -78.1197354131 0
169 1 1 -51.2474304933 -78.8096607808 0
170 1 1 -50.6498134925 -79.6114424969 0
171 1 1 -50.0210552894 -80.3890433727 0
172 1 1 -49.4017194726 -81.1741695702 0
173 1 1 -48.9451913666 -82.0638785611 0
174 1 1 -48.5337347337 -82.9753078997 0
175 1 1 -48.1917499126 -83.915013376 0
176 1 1 -47.8976476145 -84.8707873232 0
177 1 1 -47.6839756039 -85.8476927802 0
178 1 1 -47.6363133978 -86.8465562915 0
179 1 1 -47.4986458074 -87.8370347791 0
180 1 1 -47.4344103754 -88.8349695512 0
181 1 1 -47.2376071258 -89.8154125536 0
182 1 1 -47.1168899423 -90.808099494 0
183 1 1 -46.8480748109 -91.7712912844 0
184 1 1 -46.4842182316 -92.7027462697 0
185 1 1 -46.1090483395 -93.6297023378 0
186 1 1 -45.7081717063 -94.5458343833 0
187 1 1 -45.1927143781 -95.4027496316 0
188 1 1 -44.6516455605 -96.2437279516 0
189 1 1 -44.2176518607 -97.144643857 0
190 1 1 -43.6904879639 -97.9944074864 0
191 1 1 -43.236842956 -98.8855899631 0
192 1 1 -42.5428398599 -99.6055619783 0
193 1 1 -41.9758621773 -100.429295131 0
194 1 1 -41.4052732691 -101.250530967 0
195 1 1 -40.7534504322 -102.008902241 0
196 1 1 -40.1270633762 -102.788414432 0
197 1 1 -39.6161001525 -103.648017006 0
198 1 1 -39.1985333278 -104.556663222 0
199 1 1 -38.8239324871 -105.483849401 0
200 1 1 -38.445023078 -106.409283169 0


Bonds

0 1 1 2
1 2 2 3
2 3 3 4
3 1 4 5
4 2 5 6
5 3 6 7
6 1 7 8
7 2 8 9
8 3 9 10
9 1 10 11
10 2 11 12
11 3 12 13
12 1 13 14
13 2 14 15
14 3 15 16
15 1 16 17
16 2 17 18
17 3 18 19
18 1 19 20
19 2 20 21
20 3 21 22
21 1 22 23
22 2 23 24
23 3 24 25
24 1 25 26
25 2 26 27
26 3 27 28
27 1 28 29
28 2 29 30
29 3 30 31
30 1 31 32
31 2 32 33
32 3 33 34
33 1 34 35
34 2 35 36
35 3 36 37
36 1 37 38
37 2 38 39
38 3 39 40
39 1 40 41
40 2 41 42
41 3 42 43
42 1 43 44
43 2 44 45
44 3 45 46
45 1 46 47
46 2 47 48
47 3 48 49
48 1 49 50
49 2 50 51
50 3 51 52
51 1 52 53
52 2 53 54
53 3 54 55
54 1 55 56
55 2 56 57
56 3 57 58
57 1 58 59
58 2 59 60
59 3 60 61
60 1 61 62
61 2 62 63
62 3 63 64
63 1 64 65
64 2 65 66
65 3 66 67
66 1 67 68
67 2 68 69
68 3 69 70
69 1 70 71
70 2 71 72
71 3 72 73
72 1 73 74
73 2 74 75
74 3 75 76
75 1 76 77
76 2 77 78
77 3 78 79
78 1 79 80
79 2 80 81
80 3 81 82
81 1 82 83
82 2 83 84
83 3 84 85
84 1 85 86
85 2 86 87
86 3 87 88
87 1 88 89
88 2 89 90
89 3 90 91
90 1 91 92
91 2 92 93
92 3 93 94
93 1 94 95
94 2 95 96
95 3 96 97
96 1 97 98
97 2 98 99
98 3 99 100
99 1 100 101
100 2 101 102
101 3 102 103
102 1 103 104
103 2 104 105
104 3 105 106
105 1 106 107
106 2 107 108
107 3 108 109
108 1 109 110
109 2 110 111
110 3 111 112
111 1 112 113
112 2 113 114
113 3 114 115
114 1 115 116
115 2 116 117
116 3 117 118
117 1 118 119
118 2 119 120
119 3 120 121
120 1 121 122
121 2 122 123
122 3 123 124
123 1 124 125
124 2 125 126
125 3 126 127
126 1 127 128
127 2 128 129
128 3 129 130
129 1 130 131
130 2 131 132
131 3 132 133
132 1 133 134
133 2 134 135
134 3 135 136
135 1 136 137
136 2 137 138
137 3 138 139
138 1 139 140
139 2 140 141
140 3 141 142
141 1 142 143
142 2 143 144
143 3 144 145
144 1 145 146
145 2 146 147
146 3 147 148
147 1 148 149
148 2 149 150
149 3 150 151
150 1 151 152
151 2 152 153
152 3 153 154
153 1 154 155
154 2 155 156
155 3 156 157
156 1 157 158
157 2 158 159
158 3 159 160
159 1 160 161
160 2 161 162
161 3 162 163
162 1 163 164
163 2 164 165
164 3 165 166
165 1 166 167
166 2 167 168
167 3 168 169
168 1 169 170
169 2 170 171
170 3 171 172
171 1 172 173
172 2 173 174
173 3 174 175
174 1 175 176
175 2 176 177
176 3 177 178
177 1 178 179
178 2 179 180
179 3 180 181
180 1 181 182
181 2 182 183
182 3 183 184
183 1 184 185
184 2 185 186
185 3 186 187
186 1 187 188
187 2 188 189
188 3 189 190
189 1 190 191
190 2 191 192
191 3 192 193
192 1 193 194
193 2 194 195
194 3 195 196
195 1 196 197
196 2 197 198
197 3 198 199
198 1 199 200


Angles

1 1 1 2 3
2 1 2 3 4
3 1 3 4 5
4 1 4 5 6
5 1 5 6 7
6 1 6 7 8
7 1 7 8 9
8 1 8 9 10
9 1 9 10 11
10 1 10 11 12
11 1 11 12 13
12 1 12 13 14
13 1 13 14 15
14 1 14 15 16
15 1 15 16 17
16 1 16 17 18
17 1 17 18 19
18 1 18 19 20
19 1 19 20 21
20 1 20 21 22
21 1 21 22 23
22 1 22 23 24
23 1 23 24 25
24 1 24 25 26
25 1 25 26 27
26 1 26 27 28
27 1 27 28 29
28 1 28 29 30
29 1 29 30 31
30 1 30 31 32
31 1 31 32 33
32 1 32 33 34
33 1 33 34 35
34 1 34 35 36
35 1 35 36 37
36 1 36 37 38
37 1 37 38 39
38 1 38 39 40
39 1 39 40 41
40 1 40 41 42
41 1 41 42 43
42 1 42 43 44
43 1 43 44 45
44 1 44 45 46
45 1 45 46 47
46 1 46 47 48
47 1 47 48 49
48 1 48 49 50
49 1 49 50 51
50 1 50 51 52
51 1 51 52 53
52 1 52 53 54
53 1 53 54 55
54 1 54 55 56
55 1 55 56 57
56 1 56 57 58
57 1 57 58 59
58 1 58 59 60
59 1 59 60 61
60 1 60 61 62
61 1 61 62 63
62 1 62 63 64
63 1 63 64 65
64 1 64 65 66
65 1 65 66 67
66 1 66 67 68
67 1 67 68 69
68 1 68 69 70
69 1 69 70 71
70 1 70 71 72
71 1 71 72 73
72 1 72 73 74
73 1 73 74 75
74 1 74 75 76
75 1 75 76 77
76 1 76 77 78
77 1 77 78 79
78 1 78 79 80
79 1 79 80 81
80 1 80 81 82
81 1 81 82 83
82 1 82 83 84
83 1 83 84 85
84 1 84 85 86
85 1 85 86 87
86 1 86 87 88
87 1 87 88 89
88 1 88 89 90
89 1 89 90 91
90 1 90 91 92
91 1 91 92 93
92 1 92 93 94
93 1 93 94 95
94 1 94 95 96
95 1 95 96 97
96 1 96 97 98
97 1 97 98 99
98 1 98 99 100
99 1 99 100 101
100 1 100 101 102
101 1 101 102 103
102 1 102 103 104
103 1 103 104 105
104 1 104 105 106
105 1 105 106 107
106 1 106 107 108
107 1 107 108 109
108 1 108 109 110
109 1 109 110 111
110 1 110 111 112
111 1 111 112 113
112 1 112 113 114
113 1 113 114 115
114 1 114 115 116
115 1 115 116 117
116 1 116 117 118
117 1 117 118 119
118 1 118 119 120
119 1 119 120 121
120 1 120 121 122
121 1 121 122 123
122 1 122 123 124
123 1 123 124 125
124 1 124 125 126
125 1 125 126 127
126 1 126 127 128
127 1 127 128 129
128 1 128 129 130
129 1 129 130 131
130 1 130 131 132
131 1 131 132 133
132 1 132 133 134
133 1 133 134 135
134 1 134 135 136
135 1 135 136 137
136 1 136 137 138
137 1 137 138 139
138 1 138 139 140
139 1 139 140 141
140 1 140 141 142
141 1 141 142 143
142 1 142 143 144
143 1 143 144 145
144 1 144 145 146
145 1 145 146 147
146 1 146 147 148
147 1 147 148 149
148 1 148 149 150
149 1 149 150 151
150 1 150 151 152
151 1 151 152 153
152 1 152 153 154
153 1 153 154 155
154 1 154 155 156
155 1 155 156 157
156 1 156 157 158
157 1 157 158 159
158 1 158 159 160
159 1 159 160 161
160 1 160 161 162
161 1 161 162 163
162 1 162 163 164
163 1 163 164 165
164 1 164 165 166
165 1 165 166 167
166 1 166 167 168
167 1 167 168 169
168 1 168 169 170
169 1 169 170 171
170 1 170 171 172
171 1 171 172 173
172 1 172 173 174
173 1 173 174 175
174 1 174 175 176
175 1 175 176 177
176 1 176 177 178
177 1 177 178 179
178 1 178 179 180
179 1 179 180 181
180 1 180 181 182
181 1 181 182 183
182 1 182 183 184
183 1 183 184 185
184 1 184 185 186
185 1 185 186 187
186 1 186 187 188
187 1 187 188 189
188 1 188 189 190
189 1 189 190 191
190 1 190 191 192
191 1 191 192 193
192 1 192 193 194
193 1 193 194 195
194 1 194 195 196
195 1 195 196 197
196 1 196 197 198
197 1 197 198 199
198 1 198 199 200
