#Actin filament

2000 atoms
1999 bonds
1998 angles

1 atom types
3 bond types
1 angle types

-500 500 xlo xhi
-500 500 ylo yhi
-0.05 0.05 zlo zhi

Masses

1 1


Atoms

1 1 1 -150 0 0
2 1 1 -149.901435268 -0.016881755906 0
3 1 1 -149.808907622 -0.0548110923546 0
4 1 1 -149.721566782 -0.103509940374 0
5 1 1 -149.631284335 -0.146510867782 0
6 1 1 -149.546042469 -0.198796852369 0
7 1 1 -149.464865798 -0.25719503883 0
8 1 1 -149.3833536 -0.315123973919 0
9 1 1 -149.308234075 -0.381131980735 0
10 1 1 -149.243960577 -0.457740841276 0
11 1 1 -149.191177284 -0.542675663162 0
12 1 1 -149.152401933 -0.634851973163 0
13 1 1 -149.117412701 -0.728530965896 0
14 1 1 -149.073254634 -0.818253120885 0
15 1 1 -149.039233468 -0.912288009265 0
16 1 1 -149.008961113 -1.00759585026 0
17 1 1 -148.970807467 -1.10003122917 0
18 1 1 -148.919152461 -1.18565692832 0
19 1 1 -148.873281546 -1.2745155755 0
20 1 1 -148.818110708 -1.35791928433 0
21 1 1 -148.758224152 -1.43800424164 0
22 1 1 -148.699586428 -1.51900805216 0
23 1 1 -148.632469255 -1.59313824198 0
24 1 1 -148.563242745 -1.66530257089 0
25 1 1 -148.492423061 -1.73590407513 0
26 1 1 -148.423775202 -1.80861907593 0
27 1 1 -148.355122943 -1.88132992356 0
28 1 1 -148.29367708 -1.96022482791 0
29 1 1 -148.234193127 -2.04060927504 0
30 1 1 -148.165422071 -2.11320777233 0
31 1 1 -148.091156045 -2.18017461082 0
32 1 1 -148.022492992 -2.25287526558 0
33 1 1 -147.971124458 -2.33867313104 0
34 1 1 -147.912299222 -2.41954087187 0
35 1 1 -147.848610883 -2.49663688704 0
36 1 1 -147.767998433 -2.55581148295 0
37 1 1 -147.676685827 -2.59657921687 0
38 1 1 -147.588111016 -2.64299583838 0
39 1 1 -147.49396282 -2.67670217597 0
40 1 1 -147.40436562 -2.72111323102 0
41 1 1 -147.312919818 -2.76158130782 0
42 1 1 -147.221547092 -2.80221411355 0
43 1 1 -147.136441931 -2.85472231943 0
44 1 1 -147.050591076 -2.90600224447 0
45 1 1 -146.955837085 -2.93796599077 0
46 1 1 -146.856820708 -2.95195731158 0
47 1 1 -146.757948479 -2.96693337047 0
48 1 1 -146.660413994 -2.98900199579 0
49 1 1 -146.56055572 -2.99432413537 0
50 1 1 -146.46223733 -3.01258596174 0
51 1 1 -146.366646448 -3.04195232238 0
52 1 1 -146.271142001 -3.07159858107 0
53 1 1 -146.18310924 -3.11903520279 0
54 1 1 -146.091002562 -3.15797566757 0
55 1 1 -146.000388264 -3.20027281784 0
56 1 1 -145.913281235 -3.24938865607 0
57 1 1 -145.830300246 -3.30519327528 0
58 1 1 -145.738906484 -3.34577874345 0
59 1 1 -145.650177073 -3.39189914674 0
60 1 1 -145.55737715 -3.42915735722 0
61 1 1 -145.465224749 -3.46798949734 0
62 1 1 -145.374978688 -3.51106673533 0
63 1 1 -145.284554596 -3.55376900192 0
64 1 1 -145.191865374 -3.59130176346 0
65 1 1 -145.109773252 -3.64840590845 0
66 1 1 -145.028443433 -3.70659061908 0
67 1 1 -144.945782836 -3.76286872956 0
68 1 1 -144.859576255 -3.81354836524 0
69 1 1 -144.770784016 -3.85954769379 0
70 1 1 -144.689067856 -3.91718855833 0
71 1 1 -144.595683833 -3.95295759666 0
72 1 1 -144.500908766 -3.98485879871 0
73 1 1 -144.406439094 -4.0176533287 0
74 1 1 -144.311950531 -4.05039338819 0
75 1 1 -144.217637541 -4.08363582897 0
76 1 1 -144.120019884 -4.10533359566 0
77 1 1 -144.022024797 -4.12525752029 0
78 1 1 -143.923135396 -4.14011976745 0
79 1 1 -143.825465894 -4.16158295512 0
80 1 1 -143.727311313 -4.18070566925 0
81 1 1 -143.629103656 -4.19955390638 0
82 1 1 -143.52922953 -4.2045697791 0
83 1 1 -143.429236307 -4.20340554756 0
84 1 1 -143.329375518 -4.19813081782 0
85 1 1 -143.229802994 -4.18889434018 0
86 1 1 -143.129803407 -4.18860703397 0
87 1 1 -143.030992805 -4.17322961587 0
88 1 1 -142.933427061 -4.15129959911 0
89 1 1 -142.83528825 -4.1320961185 0
90 1 1 -142.738358269 -4.10750793437 0
91 1 1 -142.644665934 -4.07255444409 0
92 1 1 -142.553545728 -4.03135847467 0
93 1 1 -142.473753125 -3.97108293542 0
94 1 1 -142.387788177 -3.91999450587 0
95 1 1 -142.306482978 -3.86177539629 0
96 1 1 -142.22265284 -3.80725468522 0
97 1 1 -142.144300913 -3.74511793701 0
98 1 1 -142.053478307 -3.70326994806 0
99 1 1 -141.967272701 -3.65258865396 0
100 1 1 -141.876525282 -3.61057786976 0
101 1 1 -141.780750849 -3.58181577903 0
102 1 1 -141.686745928 -3.54771189568 0
103 1 1 -141.590808137 -3.51949948214 0
104 1 1 -141.49245189 -3.50144266316 0
105 1 1 -141.393651774 -3.48599801684 0
106 1 1 -141.297910112 -3.45712702706 0
107 1 1 -141.202046788 -3.4286626084 0
108 1 1 -141.10423188 -3.40787213421 0
109 1 1 -141.01250698 -3.36804070587 0
110 1 1 -140.921571539 -3.32643847533 0
111 1 1 -140.837964572 -3.27157614748 0
112 1 1 -140.75451217 -3.21647899159 0
113 1 1 -140.678770973 -3.15118526185 0
114 1 1 -140.601982036 -3.08712701344 0
115 1 1 -140.523287402 -3.02542486989 0
116 1 1 -140.44385845 -2.96467092655 0
117 1 1 -140.369699679 -2.89758533434 0
118 1 1 -140.296008453 -2.82998649448 0
119 1 1 -140.230881903 -2.75410149876 0
120 1 1 -140.168079476 -2.67628212384 0
121 1 1 -140.102704608 -2.6006109498 0
122 1 1 -140.037103949 -2.52513543284 0
123 1 1 -139.977601009 -2.44476503985 0
124 1 1 -139.910796877 -2.37035262194 0
125 1 1 -139.851430797 -2.28988108343 0
126 1 1 -139.791399669 -2.20990443857 0
127 1 1 -139.735701627 -2.12685187594 0
128 1 1 -139.676740133 -2.04608342778 0
129 1 1 -139.609217166 -1.97232267311 0
130 1 1 -139.535703522 -1.90453075556 0
131 1 1 -139.453573821 -1.84748067104 0
132 1 1 -139.374261137 -1.78657502078 0
133 1 1 -139.298452055 -1.72136012119 0
134 1 1 -139.227289197 -1.65110453351 0
135 1 1 -139.165655279 -1.57235645283 0
136 1 1 -139.124424624 -1.48125193589 0
137 1 1 -139.071435564 -1.39644533498 0
138 1 1 -139.000473723 -1.32598671479 0
139 1 1 -138.93879366 -1.24727477262 0
140 1 1 -138.88396787 -1.16364384121 0
141 1 1 -138.825822794 -1.08228568124 0
142 1 1 -138.769089574 -0.999936778937 0
143 1 1 -138.711166111 -0.918420691662 0
144 1 1 -138.6592686 -0.832941756699 0
145 1 1 -138.606233222 -0.748164114151 0
146 1 1 -138.553666772 -0.663094916551 0
147 1 1 -138.485867219 -0.589588314092 0
148 1 1 -138.422587453 -0.512156594781 0
149 1 1 -138.359306318 -0.434725993693 0
150 1 1 -138.30831628 -0.34870264775 0
151 1 1 -138.270007714 -0.256331365877 0
152 1 1 -138.233059341 -0.163407645873 0
153 1 1 -138.198377248 -0.0696145095053 0
154 1 1 -138.148858957 0.0172643651491 0
155 1 1 -138.108018211 0.108544338287 0
156 1 1 -138.064789245 0.198717818034 0
157 1 1 -138.014454794 0.285126400276 0
158 1 1 -137.957044239 0.367004530327 0
159 1 1 -137.897329262 0.447217506344 0
160 1 1 -137.830935357 0.521996175737 0
161 1 1 -137.769645913 0.60101265496 0
162 1 1 -137.697528914 0.670288469616 0
163 1 1 -137.623981243 0.738043470667 0
164 1 1 -137.551716012 0.807164642209 0
165 1 1 -137.477727633 0.874438111712 0
166 1 1 -137.402257375 0.940044820132 0
167 1 1 -137.337227532 1.01601270463 0
168 1 1 -137.265999741 1.08620246043 0
169 1 1 -137.193101355 1.15465554936 0
170 1 1 -137.121784115 1.22475441722 0
171 1 1 -137.06333021 1.30589097452 0
172 1 1 -137.008744605 1.38967887225 0
173 1 1 -136.956206046 1.47476529768 0
174 1 1 -136.895246713 1.55403672851 0
175 1 1 -136.828212249 1.62824171882 0
176 1 1 -136.759664581 1.70105117658 0
177 1 1 -136.684017675 1.76645412524 0
178 1 1 -136.602773108 1.82475781513 0
179 1 1 -136.520613617 1.88176499127 0
180 1 1 -136.440210821 1.94122414034 0
181 1 1 -136.359564357 2.00035237229 0
182 1 1 -136.273050518 2.05050569456 0
183 1 1 -136.185711494 2.09920779739 0
184 1 1 -136.09420487 2.13953815428 0
185 1 1 -135.995841964 2.15755866689 0
186 1 1 -135.907003249 2.20346817119 0
187 1 1 -135.81564366 2.24413050816 0
188 1 1 -135.725919847 2.28828520639 0
189 1 1 -135.645848813 2.3481903765 0
190 1 1 -135.561665648 2.4021643964 0
191 1 1 -135.467889218 2.43689163517 0
192 1 1 -135.377404814 2.47946595462 0
193 1 1 -135.281601816 2.50813275507 0
194 1 1 -135.187132784 2.54092912759 0
195 1 1 -135.090601261 2.56703784372 0
196 1 1 -134.994515197 2.59474106125 0
197 1 1 -134.902850129 2.63470999159 0
198 1 1 -134.817916709 2.68749553997 0
199 1 1 -134.737275267 2.74663062114 0
200 1 1 -134.666702133 2.8174785766 0
201 1 1 -134.599485617 2.89151870087 0
202 1 1 -134.538028943 2.97040518393 0
203 1 1 -134.472873176 3.04626509432 0
204 1 1 -134.409462153 3.12358936089 0
205 1 1 -134.35565764 3.20788096429 0
206 1 1 -134.309553522 3.29661883813 0
207 1 1 -134.263628712 3.38544964283 0
208 1 1 -134.23382228 3.48090422162 0
209 1 1 -134.2038152 3.57629591468 0
210 1 1 -134.182550361 3.67400879318 0
211 1 1 -134.14781027 3.76778046336 0
212 1 1 -134.114805828 3.86217700342 0
213 1 1 -134.083985498 3.95730905516 0
214 1 1 -134.059349236 4.05422682741 0
215 1 1 -134.032691395 4.15060815103 0
216 1 1 -133.997026404 4.24403196166 0
217 1 1 -133.942457003 4.32783041304 0
218 1 1 -133.874984872 4.40163767248 0
219 1 1 -133.809086013 4.47685296584 0
220 1 1 -133.744743878 4.55340418902 0
221 1 1 -133.676449231 4.62645103142 0
222 1 1 -133.6096247 4.70084513087 0
223 1 1 -133.541892941 4.77441420575 0
224 1 1 -133.466923925 4.84059310476 0
225 1 1 -133.390932545 4.90559549109 0
226 1 1 -133.31834699 4.97438020664 0
227 1 1 -133.24345514 5.0406464185 0
228 1 1 -133.167252691 5.10540123908 0
229 1 1 -133.088288241 5.1667577033 0
230 1 1 -132.999936873 5.21359823881 0
231 1 1 -132.916949127 5.26939280858 0
232 1 1 -132.835078842 5.32681455003 0
233 1 1 -132.745966488 5.37219062652 0
234 1 1 -132.659801407 5.4229407878 0
235 1 1 -132.571491223 5.46985892255 0
236 1 1 -132.484735865 5.51959329524 0
237 1 1 -132.400807559 5.57396276795 0
238 1 1 -132.319163588 5.63170583675 0
239 1 1 -132.248493636 5.70245721667 0
240 1 1 -132.18138812 5.77659796013 0
241 1 1 -132.109641258 5.84625704278 0
242 1 1 -132.032125306 5.90943359734 0
243 1 1 -131.954569269 5.97256093892 0
244 1 1 -131.87916006 6.03823780783 0
245 1 1 -131.788971596 6.0814355039 0
246 1 1 -131.705074369 6.13585292135 0
247 1 1 -131.616530933 6.18232936622 0
248 1 1 -131.526085634 6.22498669702 0
249 1 1 -131.429670538 6.25152213058 0
250 1 1 -131.329867724 6.25779894948 0
251 1 1 -131.229967655 6.26226842188 0
252 1 1 -131.129999791 6.25973341857 0
253 1 1 -131.030139463 6.25444997594 0
254 1 1 -130.930139596 6.25428647554 0
255 1 1 -130.830584648 6.24486245247 0
256 1 1 -130.730584678 6.24478539013 0
257 1 1 -130.631748319 6.25999638298 0
258 1 1 -130.532428528 6.27164022596 0
259 1 1 -130.43264405 6.27820208203 0
260 1 1 -130.332825434 6.28422236845 0
261 1 1 -130.234365741 6.301706331 0
262 1 1 -130.137667295 6.32718986382 0
263 1 1 -130.040053263 6.34890393298 0
264 1 1 -129.942484071 6.37081860311 0
265 1 1 -129.844389946 6.3902490572 0
266 1 1 -129.749585067 6.42206155508 0
267 1 1 -129.66183974 6.47002776786 0
268 1 1 -129.575389564 6.5202907462 0
269 1 1 -129.482934986 6.55839784511 0
270 1 1 -129.394865351 6.60576597187 0
271 1 1 -129.30533622 6.65031408971 0
272 1 1 -129.217708664 6.69849511663 0
273 1 1 -129.128034657 6.74275087817 0
274 1 1 -129.043581235 6.79630103673 0
275 1 1 -128.949135585 6.82916468305 0
276 1 1 -128.853672471 6.85894376703 0
277 1 1 -128.758878949 6.89079008965 0
278 1 1 -128.665987282 6.92781897299 0
279 1 1 -128.575011436 6.96933277126 0
280 1 1 -128.487509447 7.01774146847 0
281 1 1 -128.400705179 7.0673904256 0
282 1 1 -128.309640815 7.10870969097 0
283 1 1 -128.214582937 7.13975803678 0
284 1 1 -128.122465711 7.17867354297 0
285 1 1 -128.027626112 7.21038238389 0
286 1 1 -127.936878646 7.25239306583 0
287 1 1 -127.841232956 7.28158042662 0
288 1 1 -127.74742519 7.31622292851 0
289 1 1 -127.652973977 7.34907058315 0
290 1 1 -127.559566863 7.38477927928 0
291 1 1 -127.465641292 7.41910109559 0
292 1 1 -127.369675161 7.44721696004 0
293 1 1 -127.27503643 7.47952037449 0
294 1 1 -127.178546078 7.50578083802 0
295 1 1 -127.084386188 7.53945449357 0
296 1 1 -126.99296026 7.5799674518 0
297 1 1 -126.898382814 7.61244985691 0
298 1 1 -126.805400458 7.64925042057 0
299 1 1 -126.719369071 7.70022688928 0
300 1 1 -126.640920545 7.76224163591 0
301 1 1 -126.561570316 7.82309836237 0
302 1 1 -126.478692395 7.8790559374 0
303 1 1 -126.393290599 7.93108028972 0
304 1 1 -126.310205543 7.98672984954 0
305 1 1 -126.221434103 8.03276930419 0
306 1 1 -126.133587304 8.08054942568 0
307 1 1 -126.043572772 8.12410839776 0
308 1 1 -125.951480071 8.1630819065 0
309 1 1 -125.860498758 8.2045837226 0
310 1 1 -125.762684991 8.22537956183 0
311 1 1 -125.663350626 8.2368984135 0
312 1 1 -125.563369526 8.23884255708 0
313 1 1 -125.464102873 8.22675406953 0
314 1 1 -125.364921821 8.21398227043 0
315 1 1 -125.264961917 8.21115072414 0
316 1 1 -125.16525109 8.21875012657 0
317 1 1 -125.065774174 8.22896497641 0
318 1 1 -124.967504168 8.24748539745 0
319 1 1 -124.868725 8.26306345606 0
320 1 1 -124.771601415 8.28687541297 0
321 1 1 -124.672868528 8.30274415945 0
322 1 1 -124.572926513 8.30614909296 0
323 1 1 -124.472941488 8.30441855541 0
324 1 1 -124.372945653 8.30533123427 0
325 1 1 -124.273090557 8.3107126596 0
326 1 1 -124.173120933 8.3131772756 0
327 1 1 -124.073591236 8.32286434797 0
328 1 1 -123.973603454 8.32130116454 0
329 1 1 -123.873807921 8.32769268739 0
330 1 1 -123.774492878 8.33937696201 0
331 1 1 -123.677017653 8.3617058765 0
332 1 1 -123.577017837 8.36151380996 0
333 1 1 -123.478368607 8.34513304717 0
334 1 1 -123.378825173 8.3355881686 0
335 1 1 -123.280996782 8.31486123354 0
336 1 1 -123.186230694 8.28293336612 0
337 1 1 -123.088306949 8.26266170778 0
338 1 1 -122.988392968 8.25851485189 0
339 1 1 -122.888399846 8.25968763894 0
340 1 1 -122.78868665 8.25211937992 0
341 1 1 -122.68876187 8.24824143706 0
342 1 1 -122.590189798 8.26508027676 0
343 1 1 -122.491223316 8.27942027537 0
344 1 1 -122.391774486 8.28990503368 0
345 1 1 -122.292589464 8.2771641021 0
346 1 1 -122.192643298 8.27388324617 0
347 1 1 -122.092776607 8.26872145967 0
348 1 1 -121.992780253 8.26957538465 0
349 1 1 -121.892786829 8.27072217698 0
350 1 1 -121.793092499 8.27853502438 0
351 1 1 -121.693625615 8.26822294761 0
352 1 1 -121.593634408 8.26954908521 0
353 1 1 -121.493651114 8.27137688032 0
354 1 1 -121.393830776 8.26538521198 0
355 1 1 -121.293870516 8.26820416718 0
356 1 1 -121.194371532 8.27820177338 0
357 1 1 -121.098446904 8.30645891064 0
358 1 1 -121.003757404 8.33861320188 0
359 1 1 -120.916619274 8.38767384135 0
360 1 1 -120.844045549 8.45647103921 0
361 1 1 -120.77797113 8.53153215509 0
362 1 1 -120.715168884 8.60935167688 0
363 1 1 -120.644259386 8.67986297479 0
364 1 1 -120.579447803 8.75601715176 0
365 1 1 -120.509283407 8.82726992331 0
366 1 1 -120.430676756 8.88908411679 0
367 1 1 -120.342167217 8.93562508167 0
368 1 1 -120.256638495 8.98744050153 0
369 1 1 -120.169972338 9.03733015199 0
370 1 1 -120.080805326 9.08259872952 0
371 1 1 -119.993721159 9.13175509032 0
372 1 1 -119.914668686 9.19299810239 0
373 1 1 -119.838579089 9.25788549135 0
374 1 1 -119.769772829 9.33045062422 0
375 1 1 -119.71626869 9.41493320875 0
376 1 1 -119.664881818 9.50072009227 0
377 1 1 -119.610056789 9.58435152346 0
378 1 1 -119.560021268 9.67093354567 0
379 1 1 -119.517484629 9.76143566913 0
380 1 1 -119.469854628 9.84936395242 0
381 1 1 -119.413143435 9.93172802568 0
382 1 1 -119.356896655 10.0144099453 0
383 1 1 -119.288498856 10.0873602093 0
384 1 1 -119.212272771 10.1520872046 0
385 1 1 -119.134798999 10.2153154788 0
386 1 1 -119.057848146 10.2791791325 0
387 1 1 -118.993002068 10.355303939 0
388 1 1 -118.925867359 10.4294182486 0
389 1 1 -118.864653735 10.5084934797 0
390 1 1 -118.805248378 10.5889360278 0
391 1 1 -118.748685679 10.6714021489 0
392 1 1 -118.698438367 10.7578614319 0
393 1 1 -118.6438943 10.8416763758 0
394 1 1 -118.592703652 10.9275804942 0
395 1 1 -118.552050397 11.0189441238 0
396 1 1 -118.507422118 11.1084333228 0
397 1 1 -118.479206174 11.2043700753 0
398 1 1 -118.440648633 11.296637708 0
399 1 1 -118.400338955 11.3881534439 0
400 1 1 -118.35766663 11.4785916693 0
401 1 1 -118.310808574 11.5669337466 0
402 1 1 -118.254585146 11.6496315464 0
403 1 1 -118.194883531 11.7298544684 0
404 1 1 -118.134874031 11.8098473421 0
405 1 1 -118.07332404 11.8886610377 0
406 1 1 -118.020387174 11.9735002283 0
407 1 1 -117.960675262 12.0537154857 0
408 1 1 -117.914720004 12.1425305424 0
409 1 1 -117.882328973 12.2371393216 0
410 1 1 -117.857901426 12.3341099097 0
411 1 1 -117.832177791 12.4307447615 0
412 1 1 -117.803474377 12.526536797 0
413 1 1 -117.769537282 12.6206020591 0
414 1 1 -117.741733011 12.7166589305 0
415 1 1 -117.707351577 12.8105626951 0
416 1 1 -117.687318673 12.9085355625 0
417 1 1 -117.675506381 13.0078354606 0
418 1 1 -117.667096079 13.1074811671 0
419 1 1 -117.665427095 13.2074672386 0
420 1 1 -117.677929593 13.306682598 0
421 1 1 -117.676833024 13.4066765855 0
422 1 1 -117.676417336 13.5066757215 0
423 1 1 -117.683169546 13.6064474993 0
424 1 1 -117.700703019 13.7048983871 0
425 1 1 -117.720048051 13.8030093945 0
426 1 1 -117.74636261 13.8994850078 0
427 1 1 -117.765054335 13.9977225741 0
428 1 1 -117.787495993 14.0951719043 0
429 1 1 -117.816324591 14.19092634 0
430 1 1 -117.838513548 14.2884335202 0
431 1 1 -117.853260026 14.3873402508 0
432 1 1 -117.864084736 14.4867526528 0
433 1 1 -117.869110834 14.5866262646 0
434 1 1 -117.874896895 14.6864587318 0
435 1 1 -117.889565484 14.785377044 0
436 1 1 -117.918938519 14.880965876 0
437 1 1 -117.93323403 14.9799387934 0
438 1 1 -117.931458621 15.0799230318 0
439 1 1 -117.926227466 15.1797861131 0
440 1 1 -117.914136857 15.2790525081 0
441 1 1 -117.896562515 15.3774961088 0
442 1 1 -117.892822883 15.4774261601 0
443 1 1 -117.907493732 15.5763441372 0
444 1 1 -117.919680828 15.6755987325 0
445 1 1 -117.922499921 15.7755589882 0
446 1 1 -117.933378896 15.8749654663 0
447 1 1 -117.953701103 15.9728787337 0
448 1 1 -117.978319548 16.0698010333 0
449 1 1 -117.99639771 16.1681533593 0
450 1 1 -117.998807849 16.2681243113 0
451 1 1 -118.000431059 16.3681111364 0
452 1 1 -118.016328357 16.4668394298 0
453 1 1 -118.044790852 16.5627033248 0
454 1 1 -118.074413011 16.658215249 0
455 1 1 -118.125011184 16.7444696691 0
456 1 1 -118.177362496 16.8296714304 0
457 1 1 -118.227000616 16.9164818963 0
458 1 1 -118.279730807 17.0014496957 0
459 1 1 -118.336279327 17.08392554 0
460 1 1 -118.392175798 17.166844685 0
461 1 1 -118.438536786 17.2554486281 0
462 1 1 -118.487811582 17.3424658361 0
463 1 1 -118.530235288 17.4330209528 0
464 1 1 -118.569092944 17.5251625968 0
465 1 1 -118.601568693 17.6197423289 0
466 1 1 -118.629503733 17.7157612519 0
467 1 1 -118.646043771 17.8143839021 0
468 1 1 -118.669332002 17.9116343947 0
469 1 1 -118.690784066 18.0093063403 0
470 1 1 -118.727434862 18.1023478317 0
471 1 1 -118.761753509 18.1962745608 0
472 1 1 -118.7792757 18.2947274574 0
473 1 1 -118.802821288 18.3919159614 0
474 1 1 -118.828108169 18.4886660187 0
475 1 1 -118.86123503 18.5830196679 0
476 1 1 -118.882827303 18.6806607133 0
477 1 1 -118.920492192 18.7732963229 0
478 1 1 -118.961171555 18.8646483311 0
479 1 1 -119.000414678 18.9566264659 0
480 1 1 -119.029343609 19.052350637 0
481 1 1 -119.07063783 19.14342636 0
482 1 1 -119.101816688 19.2384415106 0
483 1 1 -119.133202613 19.3333884626 0
484 1 1 -119.17438185 19.4245162327 0
485 1 1 -119.225334881 19.5105615034 0
486 1 1 -119.274827871 19.5974547939 0
487 1 1 -119.318806286 19.6872651441 0
488 1 1 -119.372651434 19.7715307956 0
489 1 1 -119.414325106 19.8624335187 0
490 1 1 -119.451147341 19.9554072945 0
491 1 1 -119.49858088 20.0434417164 0
492 1 1 -119.549467743 20.1295261349 0
493 1 1 -119.601860599 20.2147023563 0
494 1 1 -119.652593937 20.3008773436 0
495 1 1 -119.700232533 20.3888009703 0
496 1 1 -119.74721367 20.4770776532 0
497 1 1 -119.812134641 20.5531385999 0
498 1 1 -119.880185642 20.6264124779 0
499 1 1 -119.949073263 20.6989003781 0
500 1 1 -120.017019935 20.772271011 0
501 1 1 -120.091039548 20.8395101131 0
502 1 1 -120.164363545 20.9075071098 0
503 1 1 -120.230524691 20.9824917931 0
504 1 1 -120.292293093 21.061134431 0
505 1 1 -120.350722207 21.1422888431 0
506 1 1 -120.401822775 21.2282465766 0
507 1 1 -120.462343413 21.307853438 0
508 1 1 -120.519724186 21.3897524427 0
509 1 1 -120.589925067 21.4609692683 0
510 1 1 -120.667606135 21.523942688 0
511 1 1 -120.752785886 21.5763298057 0
512 1 1 -120.845376414 21.6141053817 0
513 1 1 -120.942078571 21.63957483 0
514 1 1 -121.04124795 21.6524369536 0
515 1 1 -121.137697882 21.6788454869 0
516 1 1 -121.233588231 21.7072187305 0
517 1 1 -121.32488148 21.7480297922 0
518 1 1 -121.414883801 21.791613988 0
519 1 1 -121.495820452 21.8503443769 0
520 1 1 -121.56733459 21.9202423601 0
521 1 1 -121.638220829 21.9907770403 0
522 1 1 -121.692166596 22.0749783128 0
523 1 1 -121.747510972 22.1582669673 0
524 1 1 -121.81169325 22.2349522671 0
525 1 1 -121.873546183 22.3135284384 0
526 1 1 -121.933615112 22.3934766956 0
527 1 1 -121.973886494 22.4850092895 0
528 1 1 -122.010094639 22.5782239356 0
529 1 1 -122.06536856 22.6615593641 0
530 1 1 -122.113843693 22.7490245657 0
531 1 1 -122.159396447 22.8380467347 0
532 1 1 -122.206705062 22.9261483517 0
533 1 1 -122.257196356 23.0124653797 0
534 1 1 -122.319347784 23.0908056628 0
535 1 1 -122.378997785 23.1710669698 0
536 1 1 -122.428284222 23.2580775849 0
537 1 1 -122.482178207 23.3423120101 0
538 1 1 -122.53957936 23.4241967311 0
539 1 1 -122.596360592 23.5065125359 0
540 1 1 -122.643512377 23.5946981879 0
541 1 1 -122.686650468 23.6849151769 0
542 1 1 -122.738470035 23.7704413857 0
543 1 1 -122.790428597 23.8558832247 0
544 1 1 -122.851674141 23.9349337365 0
545 1 1 -122.909189 24.0167386321 0
546 1 1 -122.964404993 24.1001124539 0
547 1 1 -123.024372442 24.1801368564 0
548 1 1 -123.082128701 24.2617714974 0
549 1 1 -123.138778545 24.3441777784 0
550 1 1 -123.197007294 24.4254760735 0
551 1 1 -123.254915175 24.5070032306 0
552 1 1 -123.323306523 24.5799595427 0
553 1 1 -123.386674968 24.6573187061 0
554 1 1 -123.448771039 24.7357028756 0
555 1 1 -123.506070566 24.8176587426 0
556 1 1 -123.552736944 24.9061022226 0
557 1 1 -123.590998818 24.9984928552 0
558 1 1 -123.623634547 25.093017504 0
559 1 1 -123.660562488 25.1859493454 0
560 1 1 -123.710422356 25.2726326404 0
561 1 1 -123.752105202 25.3635311572 0
562 1 1 -123.785273447 25.4578702664 0
563 1 1 -123.812810415 25.5540041072 0
564 1 1 -123.847381069 25.6478383754 0
565 1 1 -123.875925703 25.7436778448 0
566 1 1 -123.907388986 25.8385991901 0
567 1 1 -123.919353886 25.9378808156 0
568 1 1 -123.918869186 26.037879641 0
569 1 1 -123.89731771 26.1355296991 0
570 1 1 -123.872704361 26.232453293 0
571 1 1 -123.846975548 26.3290867665 0
572 1 1 -123.827195694 26.4271110358 0
573 1 1 -123.810311926 26.5256754226 0
574 1 1 -123.790724371 26.6237382989 0
575 1 1 -123.783594853 26.723483825 0
576 1 1 -123.780972392 26.8234494326 0
577 1 1 -123.7797939 26.9234424881 0
578 1 1 -123.777478052 27.0234156687 0
579 1 1 -123.795790509 27.1217246404 0
580 1 1 -123.802411702 27.2215051987 0
581 1 1 -123.826101561 27.318658637 0
582 1 1 -123.838965424 27.4178277906 0
583 1 1 -123.865315858 27.5142936115 0
584 1 1 -123.906771889 27.6052957954 0
585 1 1 -123.953959826 27.6934621077 0
586 1 1 -124.008035395 27.7775800773 0
587 1 1 -124.06197496 27.8617853227 0
588 1 1 -124.114171622 27.9470819142 0
589 1 1 -124.154574963 28.0385563371 0
590 1 1 -124.20845334 28.1228007459 0
591 1 1 -124.264344014 28.2057237985 0
592 1 1 -124.328514264 28.282419163 0
593 1 1 -124.402722451 28.3494500892 0
594 1 1 -124.47605377 28.4174391883 0
595 1 1 -124.559118244 28.4731194651 0
596 1 1 -124.638524773 28.5339027122 0
597 1 1 -124.726773501 28.5809363384 0
598 1 1 -124.81586386 28.6263555841 0
599 1 1 -124.905908621 28.6698520338 0
600 1 1 -124.998802922 28.706874307 0
601 1 1 -125.087432986 28.7531853406 0
602 1 1 -125.178339687 28.794850333 0
603 1 1 -125.268814113 28.8374458529 0
604 1 1 -125.354376785 28.8892051912 0
605 1 1 -125.442369546 28.9367159699 0
606 1 1 -125.535311891 28.9736174664 0
607 1 1 -125.629904985 29.0060542772 0
608 1 1 -125.7248661 29.0373973236 0
609 1 1 -125.820833204 29.0655098657 0
610 1 1 -125.915959454 29.0963480982 0
611 1 1 -126.010781351 29.1281098328 0
612 1 1 -126.106230403 29.1579339592 0
613 1 1 -126.200526573 29.1912240813 0
614 1 1 -126.29527839 29.2231942722 0
615 1 1 -126.37663772 29.2813377116 0
616 1 1 -126.453513353 29.3452918905 0
617 1 1 -126.519935617 29.4200453707 0
618 1 1 -126.591809718 29.4895731612 0
619 1 1 -126.660834431 29.5619305312 0
620 1 1 -126.716541266 29.6449771958 0
621 1 1 -126.773622602 29.72708518 0
622 1 1 -126.834585209 29.8063540935 0
623 1 1 -126.905343443 29.8770171835 0
624 1 1 -126.986349964 29.9356511633 0
625 1 1 -127.07083422 29.9891526634 0
626 1 1 -127.155545626 30.0422937741 0
627 1 1 -127.240533162 30.0949921492 0
628 1 1 -127.32801631 30.1434348868 0
629 1 1 -127.412554534 30.1968510699 0
630 1 1 -127.497542495 30.2495487594 0
631 1 1 -127.580825916 30.3049010109 0
632 1 1 -127.659375142 30.3667881598 0
633 1 1 -127.741235971 30.4242233814 0
634 1 1 -127.82148929 30.4838841279 0
635 1 1 -127.902701267 30.5422332057 0
636 1 1 -127.982353323 30.6026943505 0
637 1 1 -128.064306847 30.6599972286 0
638 1 1 -128.135619597 30.7301006639 0
639 1 1 -128.192749216 30.8121750611 0
640 1 1 -128.231600008 30.9043195996 0
641 1 1 -128.281689265 30.990870546 0
642 1 1 -128.314817208 31.0852238149 0
643 1 1 -128.344677776 31.1806614725 0
644 1 1 -128.378398606 31.2748044788 0
645 1 1 -128.42273615 31.3644380784 0
646 1 1 -128.458151133 31.4579569482 0
647 1 1 -128.493630612 31.551451368 0
648 1 1 -128.529724808 31.644710196 0
649 1 1 -128.566669399 31.73763542 0
650 1 1 -128.604838156 31.83006456 0
651 1 1 -128.645064272 31.9216170564 0
652 1 1 -128.682073869 32.0145164093 0
653 1 1 -128.717704544 32.1079533133 0
654 1 1 -128.753729069 32.2012390762 0
655 1 1 -128.799056978 32.2903759408 0
656 1 1 -128.851776075 32.3753506247 0
657 1 1 -128.912126384 32.45508669 0
658 1 1 -128.967050859 32.538652844 0
659 1 1 -129.010278995 32.628826722 0
660 1 1 -129.061517032 32.714702583 0
661 1 1 -129.116048908 32.7985254587 0
662 1 1 -129.167454461 32.8843011495 0
663 1 1 -129.21349567 32.9730716803 0
664 1 1 -129.259017581 33.062109625 0
665 1 1 -129.310228839 33.1480014583 0
666 1 1 -129.375830716 33.2234759156 0
667 1 1 -129.442942156 33.2976112963 0
668 1 1 -129.51277405 33.3691899703 0
669 1 1 -129.58813017 33.4349277459 0
670 1 1 -129.666999969 33.4964058308 0
671 1 1 -129.745943627 33.5577890437 0
672 1 1 -129.825231067 33.6187275524 0
673 1 1 -129.896460347 33.688915797 0
674 1 1 -129.979250925 33.7450025172 0
675 1 1 -130.066085261 33.7945988691 0
676 1 1 -130.156325928 33.8376874054 0
677 1 1 -130.244034148 33.8857214368 0
678 1 1 -130.336005746 33.924979876 0
679 1 1 -130.430555737 33.9575421134 0
680 1 1 -130.524375911 33.9921509981 0
681 1 1 -130.615813745 34.0326370756 0
682 1 1 -130.704442302 34.0789509938 0
683 1 1 -130.795328761 34.1206601233 0
684 1 1 -130.887193856 34.1601671395 0
685 1 1 -130.970648808 34.2152604329 0
686 1 1 -131.05029248 34.2757326208 0
687 1 1 -131.122420822 34.3449966253 0
688 1 1 -131.19599036 34.4127278816 0
689 1 1 -131.253733896 34.4943715224 0
690 1 1 -131.313345605 34.574661273 0
691 1 1 -131.368880164 34.6578232403 0
692 1 1 -131.43134356 34.7359150077 0
693 1 1 -131.495011508 34.8130278624 0
694 1 1 -131.557019894 34.8914814163 0
695 1 1 -131.621091507 34.9682592025 0
696 1 1 -131.678456111 35.0501695324 0
697 1 1 -131.741014622 35.1281851256 0
698 1 1 -131.805354885 35.2047379212 0
699 1 1 -131.865621191 35.284537497 0
700 1 1 -131.918680084 35.3693004247 0
701 1 1 -131.987508403 35.4418446358 0
702 1 1 -132.051258447 35.5188896346 0
703 1 1 -132.114111316 35.5966682749 0
704 1 1 -132.181468302 35.6705806314 0
705 1 1 -132.244448129 35.7482565048 0
706 1 1 -132.300802396 35.8308652007 0
707 1 1 -132.355165513 35.9147976229 0
708 1 1 -132.411210239 35.9976166349 0
709 1 1 -132.474894615 36.0747159231 0
710 1 1 -132.536181961 36.1537340298 0
711 1 1 -132.608887096 36.2223923388 0
712 1 1 -132.690779489 36.2797825461 0
713 1 1 -132.760948239 36.3510310303 0
714 1 1 -132.819579293 36.432039669 0
715 1 1 -132.877492165 36.5135632808 0
716 1 1 -132.935538561 36.5949918747 0
717 1 1 -132.998475119 36.6727028108 0
718 1 1 -133.045771422 36.7608110381 0
719 1 1 -133.095020356 36.8478428859 0
720 1 1 -133.137657972 36.9382974809 0
721 1 1 -133.173060671 37.0318210012 0
722 1 1 -133.207778537 37.1256009019 0
723 1 1 -133.245364511 37.2182685584 0
724 1 1 -133.282205347 37.3112349654 0
725 1 1 -133.313025946 37.4063669299 0
726 1 1 -133.345369135 37.5009920751 0
727 1 1 -133.376035535 37.5961738587 0
728 1 1 -133.405802152 37.691640861 0
729 1 1 -133.437830463 37.786373048 0
730 1 1 -133.469480858 37.8812321675 0
731 1 1 -133.504570002 37.9748737817 0
732 1 1 -133.547858849 38.0650185305 0
733 1 1 -133.60438265 38.1475113179 0
734 1 1 -133.66196374 38.2292696083 0
735 1 1 -133.717503435 38.312428145 0
736 1 1 -133.772305501 38.3960746249 0
737 1 1 -133.836693104 38.4725876081 0
738 1 1 -133.91296145 38.537264802 0
739 1 1 -133.994156921 38.5956368452 0
740 1 1 -134.083740255 38.6400758641 0
741 1 1 -134.176206472 38.6781547125 0
742 1 1 -134.268390601 38.7169114695 0
743 1 1 -134.36069411 38.7553830469 0
744 1 1 -134.457629823 38.7799486224 0
745 1 1 -134.55384034 38.8072164895 0
746 1 1 -134.647197266 38.8430561931 0
747 1 1 -134.739620096 38.8812402272 0
748 1 1 -134.823273505 38.9360317157 0
749 1 1 -134.90380436 38.9953173074 0
750 1 1 -134.986534352 39.0514933553 0
751 1 1 -135.071299319 39.1045489903 0
752 1 1 -135.156757963 39.1564799072 0
753 1 1 -135.243444881 39.2063334756 0
754 1 1 -135.32949372 39.25728048 0
755 1 1 -135.418793398 39.302286785 0
756 1 1 -135.504964296 39.3530270687 0
757 1 1 -135.591456712 39.403217326 0
758 1 1 -135.687414298 39.4313623371 0
759 1 1 -135.785572475 39.4504665881 0
760 1 1 -135.883518757 39.470629075 0
761 1 1 -135.978986905 39.5003920172 0
762 1 1 -136.074802376 39.5290171001 0
763 1 1 -136.172106007 39.5520823015 0
764 1 1 -136.269079531 39.57649819 0
765 1 1 -136.368260329 39.5892719637 0
766 1 1 -136.468108119 39.5837566355 0
767 1 1 -136.566097967 39.603706313 0
768 1 1 -136.665992993 39.5991255086 0